# LAMMPS data file written by lammpsIO.jl

2047 atoms
1 atom types

0 32.3974677930295 xlo xhi
0 32.3974677930295 ylo yhi
0 32.3974677930295 zlo zhi

Atoms  # atomic

1 1 -6.112833200237308e-5 -0.0009595545006527802 0.004229152972136273
2 1 2.024348899100939 2.023653203774462 0.003869323833990274
3 1 2.0246057325156905 -0.0009045956858017965 2.0294884529380384
4 1 -0.00016678501033272764 2.0237154469247174 2.0292530047119985
5 1 4.04910928920123 -0.0006827184251835381 0.0037073571293327005
6 1 6.073738880233967 2.0242499936746112 0.002830372372133856
7 1 6.073758565782754 -0.00040760554874379385 2.0284707916824294
8 1 4.049167418168931 2.0238258288124835 2.028947325915354
9 1 8.098386881794143 9.879222727782887e-5 0.0022708288748326823
10 1 10.12340389020616 2.0246649686402742 0.0013383206429467402
11 1 10.123385846127675 0.00042006236510949387 2.0273117477952782
12 1 8.098642235139447 2.0243614755401826 2.0277016797078415
13 1 12.14805337284117 0.0007991378802323849 0.0009638236291017856
14 1 14.173332337136241 2.0250796608284287 0.00028492809227128517
15 1 14.173229308154914 0.0008905249690600194 2.026138581642298
16 1 12.14844219029988 2.0248337999082833 2.026318838006087
17 1 -0.00044118412821291897 4.048407161881176 0.0035589478817120903
18 1 2.024066645008596 6.0729724509768115 0.0027035956196350647
19 1 2.02429103571231 4.048331465327269 2.0287589252847553
20 1 -0.0005896800728084607 6.072866492099237 2.0283914027153864
21 1 4.04898141745908 4.0483870077135515 0.0029501598958994566
22 1 6.073459413874274 6.073082616521013 0.001646902781302285
23 1 6.073717147488928 4.048467129991584 2.028014678212503
24 1 4.048606569579306 6.073013476401396 2.0279092925105466
25 1 8.098486995318552 4.048816785947048 0.0015914549838619383
26 1 10.122971454588091 6.073327944852472 0.00020139688606398028
27 1 10.123337603017404 4.0488597474953405 2.0262884322279824
28 1 8.098015937302485 6.073035287427786 2.026294953248431
29 1 12.148321307370978 4.049049374386762 0.0002571022312005111
30 1 14.173072960891508 6.073268772787914 -0.0008161300951862651
31 1 14.173361975189033 4.048994953294893 2.0252621771911437
32 1 12.147927199555713 6.07314901235538 2.0246839400810104
33 1 -0.0007994766406926831 8.097681281975513 0.002099479068907341
34 1 2.023214485770945 10.12234559867701 0.0012760797185080812
35 1 2.023646573520175 8.097593424080742 2.0276107493565867
36 1 -0.0009268677694378462 10.122139144351827 2.0270479419301886
37 1 4.0482017171047655 8.097463193841392 0.0015310856070391513
38 1 6.0722583897706 10.122230022628514 0.00019769356325917932
39 1 6.072754537812528 8.097606566592926 2.0263120528052405
40 1 4.047766270977363 10.122272293203673 2.026218632568603
41 1 8.097549427460612 8.097890811635484 0.000145761597813951
42 1 10.121799698884251 10.122703848207983 -0.0013813877079630738
43 1 10.122238578151794 8.097508387635823 2.024244928609762
44 1 8.096738486461513 10.122291045358393 2.0243171220863174
45 1 12.14759836205795 8.097814909309463 -0.0011936488556940081
46 1 14.172616626643293 10.122802202689911 -0.002189137491086968
47 1 14.172663405742941 8.097590400776317 2.0226158348612584
48 1 12.14674010375619 10.122249065945969 2.021791922020191
49 1 -0.0013058444118992706 12.147009967013968 0.0008116378897233457
50 1 2.0228470466772626 14.171891305991652 0.0003101075772121544
51 1 2.023051706720275 12.14695287654571 2.0261510209069558
52 1 -0.001314340464506774 14.171657406924282 2.026004089138296
53 1 4.0473275862115 12.146848799556947 0.00029239146951689897
54 1 6.071299388547532 14.172076538739669 -0.000643115323770789
55 1 6.071656706150147 12.147278588441035 2.0246050679844263
56 1 4.046882341744663 14.172026330050622 2.0251111870824343
57 1 8.096256814681606 12.14749298879875 -0.001116866636342182
58 1 10.120773047835158 14.173128872251826 -0.0020918211204408567
59 1 10.121086930926596 12.147313492425774 2.0219410878600326
60 1 8.095831531059577 14.172779557953715 2.0226456092699627
61 1 12.146547489219945 12.148141449302065 -0.0024231284170757625
62 1 14.171882759896443 14.17406059676674 -0.0031945168405968314
63 1 14.172052581882687 12.147523927158051 2.019674287300985
64 1 12.146150223277415 14.173135761162047 2.0198695559308124
65 1 -0.0014300572223021682 16.196736456159872 0.0002675687010346402
66 1 2.022679553852517 18.221964145384362 0.00036239580662812964
67 1 2.022649312192289 16.196717765780054 2.02571733913869
68 1 -0.0011964328472858364 18.221553807568363 2.0260904287314006
69 1 4.046824752331709 16.196859944752333 -0.0001778875642328533
70 1 6.071216495250953 18.22261367487612 -0.0005571470787725357
71 1 6.070950508206385 16.19771123480361 2.023739818590425
72 1 4.046816975614652 18.222140710461485 2.0251353995987786
73 1 8.095728840945528 16.197981440186098 -0.0013631069034074656
74 1 10.120878306267512 18.22438028014136 -0.001962697109013091
75 1 10.120496898508861 16.198935384330294 2.0208676370020537
76 1 8.095424916886467 18.22393168462333 2.0224835396129346
77 1 12.146026147854009 16.19925701161461 -0.002821230139626652
78 1 14.171795484021002 18.22567055260577 -0.003150480031912396
79 1 14.171871482374437 16.199724642465615 2.018855983786692
80 1 12.145923638538065 18.225321883981927 2.0200575771044575
81 1 -0.0013064605619448743 20.246844489033325 0.0009942274264980175
82 1 2.0232183275368243 22.27212604557154 0.0015440596070581828
83 1 2.02294478080423 20.24685634175951 2.026244499583746
84 1 -0.0009088306157119238 22.271826580263294 2.027095003658146
85 1 4.047121285456976 20.24716974105776 0.0004215720359944297
86 1 6.071872053998735 22.273067104433245 0.0004576446589053932
87 1 6.071272241424413 20.24826748827943 2.024614656961601
88 1 4.0473658710295926 22.272441814885685 2.0262777788191766
89 1 8.096000946010149 20.249014649370338 -0.0009117666832138573
90 1 10.121268583875766 22.275251534615755 -0.0011159900904481833
91 1 10.120600107094955 20.25021577854979 2.0219106931514066
92 1 8.096335473153616 22.274486310532108 2.0244563764352828
93 1 12.146383955395484 20.250837802555864 -0.002248436533218252
94 1 14.172276897430345 22.276571150906353 -0.001880069380570627
95 1 14.17179428448794 20.25145093297263 2.020122219196344
96 1 12.146311258405346 22.276339267099562 2.0219776280963475
97 1 -0.0007343026424037171 24.29700576177742 0.0023102013244208045
98 1 2.023917360517465 26.3221189728949 0.0029230487996112805
99 1 2.0236256456678836 24.29705654797962 2.0277123248691558
100 1 -0.000334173638333025 26.322005052441952 2.028455266752827
101 1 4.0478964760184795 24.297476788306906 0.0018725843359640214
102 1 6.072708597601302 26.3232059106203 0.001944052748772427
103 1 6.072189742152938 24.29841565081398 2.0262253354807522
104 1 4.04835321321548 26.32253621244499 2.027988079535874
105 1 8.096941268258895 24.299186584472384 0.0004164192829965374
106 1 10.122357944546566 26.32477170056988 0.00045986716553464007
107 1 10.121736796540615 24.30027608136623 2.0245501000111252
108 1 8.097404495736242 26.324105937068545 2.0262815659359763
109 1 12.146981994382465 24.300938005683552 -0.0008661032904351991
110 1 14.172767428078561 26.32599402656366 -0.0005371846464577204
111 1 14.172241753007915 24.30197273766182 2.0226124029819803
112 1 12.147331611616924 26.325675356542863 2.024839208168167
113 1 -0.00021645093547953764 28.346978316728567 0.0037153390003871866
114 1 2.0245686630961366 30.37185245058922 0.004028238127870559
115 1 2.024305310524592 28.347082284199885 2.0288755910965772
116 1 -1.754613544923735e-5 30.37179119246758 2.0294516245783263
117 1 4.048720850625564 28.34729748294567 0.003117606688119738
118 1 6.073534813789169 30.372542183940535 0.0028981153707651596
119 1 6.073263632760817 28.34797475898645 2.02805517027458
120 1 4.048961371957103 30.372163979396632 2.0288945534073224
121 1 8.09780658307164 28.34862768704879 0.001853878711749599
122 1 10.122923590550624 30.373605754738815 0.0015403336367762446
123 1 10.122828374939726 28.34934864296963 2.0264184766365547
124 1 8.098318889221522 30.373001647640393 2.0278822768973703
125 1 12.1478008329215 28.349694794653313 0.00047496678901496074
126 1 14.172796155528339 30.37435236584746 0.00035581088516444513
127 1 14.17288428478039 28.350439928651287 2.0252876836238616
128 1 12.148072640760944 30.374144736348754 2.02637101383517
129 1 2.7438941188931896e-6 -0.0008096619407184416 4.054654757135579
130 1 2.0246710279743114 2.0239010070252177 4.054574819622052
131 1 2.0247135672399788 -0.0006970093129138627 6.080146820788105
132 1 -0.0001348953470216933 2.0241505664169637 6.079958262551966
133 1 4.049282599055943 -0.0007087205334385543 4.054621184261347
134 1 6.074038664100791 2.024098879462845 4.053985051511883
135 1 6.074227658533177 -0.00016191155408465377 6.079482229549993
136 1 4.04942530153609 2.0241860656003583 6.079823194526494
137 1 8.09879304408969 3.346580751927457e-5 4.053406123314048
138 1 10.12356450715615 2.0248055878342455 4.052614371042339
139 1 10.123716125331976 0.0003969302918532264 6.078386195938415
140 1 8.098945770540768 2.024840690784078 6.078911031103937
141 1 12.148484390618567 0.0006769390146040124 4.052382076039009
142 1 14.173269114508159 2.0250526801093964 4.051505460319385
143 1 14.173202328116632 0.0009741706179459455 6.077476458476816
144 1 12.148337692058657 2.0253813477983957 6.077544673125563
145 1 -0.00034112460734251514 4.048397267745526 4.05440961332061
146 1 2.0240864905874574 6.073209587184438 4.053856187618073
147 1 2.024526602470236 4.048931949927641 6.07970689189234
148 1 -0.00047833565240447976 6.073581691188806 6.079398461323056
149 1 4.049068865260796 4.0487026455720745 4.05397143341119
150 1 6.073367060432525 6.073329834646199 4.052658909236908
151 1 6.073963694781029 4.04928737197612 6.078947910332947
152 1 4.0490327565456194 6.0738477376029545 6.078952783899343
153 1 8.098523522385701 4.048868843964957 4.052805633832142
154 1 10.12296920533615 6.073104593280724 4.050835570545018
155 1 10.123402345132558 4.049532641483843 6.077579668780583
156 1 8.09834271060848 6.07380596884237 6.077237220657436
157 1 12.148219879698546 4.049072077015094 4.051193984557411
158 1 14.173064702772912 6.073129033583727 4.049196746041447
159 1 14.173095929366175 4.049887863698078 6.076265856809572
160 1 12.14799323407355 6.073691624783776 6.0752538994919005
161 1 -0.0007323963292930626 8.097593987220025 4.0533687086131405
162 1 2.023501437378471 10.122442805789037 4.052446865592378
163 1 2.0241041553305132 8.098472480127615 6.0787304689409725
164 1 -0.0007949919713817826 10.122975898644945 6.078221353041961
165 1 4.04840527499521 8.098095598659027 4.052648076886339
166 1 6.072124923477201 10.122769997207856 4.050611391859495
167 1 6.072978459817134 8.098298249275238 6.077110813148274
168 1 4.048027155068293 10.123344090676298 6.07720241224342
169 1 8.097462366896595 8.097600412172666 4.050491767165755
170 1 10.121458249834772 10.12200265779684 4.047272672655237
171 1 10.122302205682072 8.097959298416372 6.074227214464263
172 1 8.096445857325376 10.122608106711672 6.0739205258631745
173 1 12.147406190730615 8.097160446258878 4.0479202535742935
174 1 14.172191765962923 10.121561571271165 4.044536829108414
175 1 14.172821242224208 8.09704533836671 6.071674751534957
176 1 12.146359000306703 10.121332029648794 6.069026236859091
177 1 -0.0010065976797239433 12.146920237335763 4.052058478411021
178 1 2.022992963658457 14.17184085846318 4.051402015634185
179 1 2.0236054171024866 12.14787240271845 6.077422036866651
180 1 -0.000766073996054746 14.172522513061834 6.077109829828841
181 1 4.047285365725828 12.147652692339141 4.050967167580322
182 1 6.070882677881309 14.17285912880405 4.048710286257417
183 1 6.071582286250404 12.14792590353469 6.074778393714871
184 1 4.047699066089411 14.173286477737658 6.076111470281481
185 1 8.095740106269474 12.147490506742026 4.047458958731924
186 1 10.119825830591527 14.17298477042699 4.044034075454143
187 1 10.119662316267624 12.146945147681821 6.068531284776914
188 1 8.094573628410656 14.172845958761298 6.070681591420123
189 1 12.146017133284182 12.147042345199166 4.043514721487517
190 1 14.171637440563625 14.172805293735799 4.0402182281762435
191 1 14.171681042437283 12.145909340163838 6.063273805333089
192 1 12.144392434052348 14.172303704863186 6.062972890692495
193 1 -0.0010452656837295414 16.19667804635749 4.051539575896275
194 1 2.023046430007982 18.22188511559252 4.0514227403481655
195 1 2.0235809737772024 16.197510681402267 6.0768045824612065
196 1 -0.0007253988246038198 18.222245708932096 6.077184375166101
197 1 4.046973693821439 16.19755910760214 4.050329730382287
198 1 6.07095501173888 18.2234930644433 4.048995204626305
199 1 6.0713247435029425 16.198516128856838 6.073882488517206
200 1 4.047801078964754 18.223022712119676 6.076193238194687
201 1 8.094780344749537 16.198469858914876 4.046242157873004
202 1 10.11956134041436 18.224883703668638 4.04416981077068
203 1 10.11898179914763 16.19901362179648 6.066016308428481
204 1 8.095067082603476 18.224217195832125 6.070927940513304
205 1 12.144976620723565 16.199086388330116 4.041129276065924
206 1 14.171556025324238 18.226091521210083 4.0402851796901045
207 1 14.17104655182689 16.199337929804297 6.058650780287503
208 1 12.14483191565636 18.226244622073086 6.062576474114834
209 1 -0.0008802697911188631 20.246718701238947 4.051986550335563
210 1 2.0234393486994686 22.2719694207358 4.052458553814854
211 1 2.023802360102037 20.24731805646851 6.077365249188915
212 1 -0.0004403614529784297 22.272135001139294 6.077887182220464
213 1 4.047167645572967 20.247734117412563 4.051010683620627
214 1 6.0717477335406995 22.27359287408576 4.050558301385553
215 1 6.071988844024683 20.248473388556935 6.075087213470236
216 1 4.048305628784291 22.272974767051508 6.077355609046936
217 1 8.095532104356295 20.249528796106684 4.047805166658526
218 1 10.121110061762218 22.275826242272 4.047464542799125
219 1 10.119713423083583 20.251409206464025 6.068591193508101
220 1 8.096583398009539 22.27474612511375 6.074246881503283
221 1 12.145663824273266 20.25173634741288 4.043370765914702
222 1 14.172072147328638 22.278146719546754 4.044213173080645
223 1 14.17170151588524 20.253280203403197 6.062672711943208
224 1 12.146014667137496 22.27800451438476 6.06868765267177
225 1 -0.0004857703278559305 24.296902954295913 4.053143775704453
226 1 2.0240819085676693 26.32212674950765 4.053649509053742
227 1 2.0240325049203607 24.29725246960739 6.078544379944829
228 1 -0.00019288365097799463 26.322100492698983 6.079203070083647
229 1 4.048034241581471 24.297736801212483 4.052644475670055
230 1 6.073063768593552 26.323256604209703 4.052811197048795
231 1 6.073044879702769 24.29837116916 6.0772588655117215
232 1 4.048865316262535 26.322598219345107 6.078819208893022
233 1 8.096973917617198 24.29940825822358 4.050503973451714
234 1 10.122408435597894 26.325096635245963 4.05076082848257
235 1 10.12210803843448 24.300737547255064 6.074367825753946
236 1 8.09806546272533 26.32384904295056 6.077384940716663
237 1 12.1469876178814 24.30177187679417 4.048035093171457
238 1 14.172482361136773 26.326545568284413 4.0493071203825854
239 1 14.172756430361314 24.30266947001318 6.071302458330352
240 1 12.14790061992561 26.32532740562391 6.07555127585705
241 1 -3.827278588027056e-5 28.34697864475314 4.054448143362949
242 1 2.0245189894402915 30.3719140692015 4.0546842244548955
243 1 2.024542597359678 28.34709993153981 6.0795376599288975
244 1 2.59076185907436e-5 30.371952504229544 6.079998723509366
245 1 4.048876376081667 28.347475986173126 4.05379362154398
246 1 6.073769357238016 30.37257074748102 4.0537952993917985
247 1 6.073888639933376 28.34779498082332 6.079034172325003
248 1 4.04939941016452 30.37214614440265 6.079673889521218
249 1 8.098152305473448 28.34853785179962 4.052915164382764
250 1 10.123354654697565 30.3735662672683 4.052712091171027
251 1 10.123253859025542 28.348951459036293 6.077619859185576
252 1 8.098734409102168 30.373006275044634 6.07887149099326
253 1 12.147844445793996 28.35005100533363 4.051246854416833
254 1 14.17326127635309 30.374338953901574 4.051690101017865
255 1 14.172986103833292 28.349651972015398 6.076540786122544
256 1 12.148375518079192 30.373567545952067 6.07778463394506
257 1 -9.603157390504922e-5 -0.00046332436908140377 8.105139864627612
258 1 2.0246851207764403 2.024508302038647 8.105269797879323
259 1 2.0250218312236323 -0.00022476711723059547 10.130335386866237
260 1 -0.00019231245989994502 2.0248836800447108 10.130217237040888
261 1 4.049777850257908 -0.00032026617113795194 8.105327074664402
262 1 6.074532464018486 2.025016123312184 8.104712677421535
263 1 6.074932868008393 -6.447838662841606e-6 10.129929488355609
264 1 4.049977787821559 2.0252906533687516 10.130053819829467
265 1 8.099258499612864 0.00023308620547210873 8.104256200263343
266 1 10.12387509102104 2.0257048072862567 8.103528546378504
267 1 10.124233759123465 0.000744900190939646 10.128649756032745
268 1 8.099523678134812 2.025930932142086 10.129115518040365
269 1 12.148525008481444 0.0008388348552198767 8.103203793129998
270 1 14.173058287611022 2.026196250138271 8.102457821711358
271 1 14.173038420689132 0.0009755104556313451 10.127825242464152
272 1 12.148626465947803 2.0267630056583728 10.128042319724809
273 1 -0.00023551233212748632 4.049483160439494 8.10511370875131
274 1 2.0245198061018503 6.0744779199311205 8.104553268302517
275 1 2.024799440392452 4.050180681396139 10.130010949287978
276 1 -0.00034892516478942205 6.0751368989359085 10.129609659146807
277 1 4.049522150883121 4.049626983105674 8.104658911529285
278 1 6.0741009251280085 6.074811175203093 8.10377047945351
279 1 6.074882310542055 4.051033545809597 10.129295954612271
280 1 4.049897540459822 6.075615959955662 10.129428630279072
281 1 8.099089489522644 4.050370400028594 8.103770261448169
282 1 10.123315544069943 6.0750165275964365 8.101643476152226
283 1 10.124092732412565 4.052016010103017 10.128164029684498
284 1 8.099302638984001 6.076709805061064 10.128209348197727
285 1 12.148373001923687 4.050839297363567 8.10226005519872
286 1 14.17304938505008 6.075538034882722 8.100345171436283
287 1 14.173006423264388 4.052583932158585 10.126975938576816
288 1 12.148756682933803 6.077794245505691 10.126257696973994
289 1 -0.0005435322524700479 8.09927109864073 8.104047682113462
290 1 2.024411822567567 10.12430256813413 8.103376024645275
291 1 2.0248312961966093 8.100465608908742 10.128951653191494
292 1 -0.0003292769085815693 10.125189607876472 10.12837164841439
293 1 4.049038861649009 8.099329876242825 8.103676921040398
294 1 6.072908772742151 10.12399081079695 8.101422044213548
295 1 6.074616358514921 8.101208547472277 10.128250753879538
296 1 4.050027027451909 10.125639821033014 10.128160582557634
297 1 8.097929096211946 8.099339372847256 8.101246073820088
298 1 10.12116474205495 10.122658144328021 8.096571994657074
299 1 10.123546430603987 8.101168203482993 10.125536525578948
300 1 8.098629991582833 10.125826244143717 10.125415632161006
301 1 12.147387474437572 8.098793398170082 8.098010871433305
302 1 14.172466814644343 10.120436579676976 8.091000567604294
303 1 14.173429807293587 8.103003277134125 10.124085032319066
304 1 12.147553257555085 10.123615669074654 10.119602607832823
305 1 -0.0005514311058589195 12.148851686343068 8.102890216197936
306 1 2.0242937033250663 14.17368055551896 8.102415719430995
307 1 2.0251972819670723 12.150127725178649 10.128001911943269
308 1 -0.00014238832634390767 14.174647482967856 10.127482104768623
309 1 4.04883675236033 12.149256044355575 8.102061792067811
310 1 6.072574748812349 14.17414349295115 8.099795415385868
311 1 6.07482201689985 12.15090425181136 10.126291056437351
312 1 4.050812327769192 14.17523960039651 10.127322464377206
313 1 8.096079249145083 12.148427656900529 8.097249475633769
314 1 10.117797586496977 14.173127930500565 8.08858524904748
315 1 10.120408246428982 12.147643538371872 10.117281998148195
316 1 8.09817696400112 14.175324915538761 10.12206547576438
317 1 12.144549814911398 12.1442956974616 8.08671889645805
318 1 14.171125332071858 14.169928253234339 8.077604780349454
319 1 14.17288926596686 12.140447347152502 10.103741023792605
320 1 12.139536354278356 14.1670481472531 10.097374402042755
321 1 -0.0003868517814776565 16.198274427443454 8.102311835267662
322 1 2.0247248810118283 18.223158440822598 8.10252452203883
323 1 2.0258365516373606 16.199386430882154 10.12755279536538
324 1 2.0481071106021864e-5 18.22350307218304 10.127397904841173
325 1 4.049142589929388 16.19891422792239 8.101841945781056
326 1 6.073879810269115 18.223783991664796 8.100799198569058
327 1 6.07716254778862 16.200525331558342 10.126481321798757
328 1 4.051751851102972 18.223669697469745 10.127830176535925
329 1 8.095286745308831 16.199773306227204 8.095279322078472
330 1 10.118153494975612 18.22597937670511 8.088508821753726
331 1 10.116932639382284 16.200648842796284 10.111162243315384
332 1 8.10360210209339 18.225397739113777 10.12645444542835
333 1 12.143591501367144 16.198891596648668 8.080656712954534
334 1 14.171823335555228 18.22632546753731 8.078250677371512
335 1 14.169586715196802 16.194506891668507 10.090066822583285
336 1 12.138657603413755 18.228062041739296 10.095886329241766
337 1 -0.0003251526928937211 20.247618321377818 8.102737603659229
338 1 2.0245954664243424 22.272403784540092 8.103323653712867
339 1 2.02580346219197 20.248080755742137 10.128091643637594
340 1 -9.536517401043831e-5 22.27266155294156 10.1283047884394
341 1 4.049446620612082 20.247999947925287 8.10234392522549
342 1 6.073679154875546 22.272980646554284 8.1017671084984
343 1 6.07672773490385 20.247586843381868 10.127116862782813
344 1 4.051171272514386 22.272362904371295 10.128521548823047
345 1 8.096973069618194 20.24946609574359 8.097805799242337
346 1 10.121917858706247 22.275991818119127 8.096779247219917
347 1 10.121461957038061 20.25005423940223 10.118453134276228
348 1 8.099654559565133 22.273315903007983 10.125274495643346
349 1 12.144053312064855 20.253724557531793 8.08542959709396
350 1 14.171977054317964 22.279611190661743 8.088712669982494
351 1 14.170311368771664 20.25943918046288 10.095951525981615
352 1 12.148521512412596 22.276324794178894 10.118721659099817
353 1 -0.00015893295991821908 24.29734185070058 8.103831391112726
354 1 2.0246640592700387 26.322160546968732 8.104373034859327
355 1 2.0253216567613617 24.297158955968587 10.129025725608008
356 1 1.0928064847111255e-5 26.32225852844885 10.129603448154818
357 1 4.049617539678417 24.297458138507352 8.103688017397772
358 1 6.074376253232406 26.32254048423721 8.103970397258141
359 1 6.075770942018123 24.296974971314267 10.128789012350076
360 1 4.0504630543557365 26.32186257119227 10.129299714920677
361 1 8.09838104573556 24.298923571141174 8.101326725377595
362 1 10.123906910945083 26.323789776471394 8.101943060643968
363 1 10.124698780041564 24.297854247403162 10.125464977113083
364 1 8.100358714947982 26.321773851855536 10.128828739297102
365 1 12.148140507247756 24.30068405564399 8.098345238091797
366 1 14.173110362210368 26.3238162231561 8.101319870129478
367 1 14.172937553658098 24.294195522016846 10.127007475281324
368 1 12.149785041410247 26.321002804477487 10.12743824647494
369 1 -1.2310401413221106e-5 28.347116171295255 8.105064766144846
370 1 2.0249799531942876 30.371930020407998 8.105292250014665
371 1 2.0251436395069464 28.346926729978318 10.13007883614741
372 1 -7.581765506112917e-5 30.372161985265674 10.130186513807203
373 1 4.049644477880745 28.3471984986077 8.104552790942689
374 1 6.074549514661982 30.3724179093079 8.104566989484814
375 1 6.075224934756782 28.34684500337337 10.129513267293389
376 1 4.05014856188838 30.372038941731727 10.130123996828827
377 1 8.099297216111315 28.34760117436323 8.104040434947711
378 1 10.124023692716852 30.372797742152006 8.103801872477655
379 1 10.124837152279676 28.346439116178832 10.128875507397364
380 1 8.09990426254944 30.372177341737665 10.129327232600613
381 1 12.148802384566102 28.348156939530288 8.102786263267845
382 1 14.173067517537152 30.37326598642466 8.10285569649131
383 1 14.173524297421466 28.34616268007451 10.12814735684418
384 1 12.148801095636712 30.37212417915734 10.12851746945895
385 1 -0.00024353133746087878 4.858252979910548e-6 12.154860212075892
386 1 2.025128011138633 2.0254885863164573 12.154928658750494
387 1 2.0252128495294714 0.0001222353751824424 14.179255904522211
388 1 -0.0003495116808092698 2.025656816909832 14.179186696786378
389 1 4.05024745694089 2.0875935022677773e-5 12.1549478041197
390 1 6.0751426367521555 2.0261697453149528 12.154138970109344
391 1 6.075618094878001 0.0003301790724284725 14.178687300275849
392 1 4.05048959788432 2.026150265609617 14.178884571605181
393 1 8.100063840137972 0.00042256396201985396 12.153904991295166
394 1 10.124394610282334 2.027014185930216 12.15317687924578
395 1 10.124842291088713 0.0005921182937696681 14.177433707052675
396 1 8.100246001314757 2.0272032958166264 14.177706022844779
397 1 12.148908517684598 0.0008130519540871124 12.15275010273514
398 1 14.172916525473862 2.02787890038848 12.152112437652956
399 1 14.172989119447436 0.0010828990957833509 14.176545920043589
400 1 12.148788178920626 2.028139504188767 14.176514613946871
401 1 -0.0003623837647993202 4.050537478101221 12.1547585523005
402 1 2.0250986737145595 6.076230023991814 12.154063123694646
403 1 2.025276848035316 4.0514539227376405 14.178787024176764
404 1 -0.00033380684729614446 6.07651551316702 14.178377202646956
405 1 4.050382034377714 4.051466108065324 12.154289746732859
406 1 6.075701434779337 6.077740778111103 12.153887594944454
407 1 6.075811526162381 4.052892850019268 14.178052779786125
408 1 4.051088774741813 6.078030947639245 14.178068170872676
409 1 8.100185842759098 4.052823416920055 12.153356514366418
410 1 10.125281413446608 6.079899170202273 12.152396348578224
411 1 10.125136492317091 4.0549804163132706 14.176803190205217
412 1 8.10173272619174 6.08072047917545 14.177420556326954
413 1 12.148741184867433 4.054211911708521 12.15218003033109
414 1 14.173275335700312 6.081277748230651 12.15074077775857
415 1 14.173082584017843 4.055872764590906 14.175768283896103
416 1 12.15068341541899 6.083456199938819 14.175539560746584
417 1 -0.0001757717329003496 8.101031393057088 12.153493189963582
418 1 2.0255719779158623 10.126546989411889 12.153130203605757
419 1 2.0257558052185143 8.102491878818258 14.177616664209209
420 1 4.84521848189026e-6 10.126958305905406 14.177120755336755
421 1 4.050985571237776 8.102346084992886 12.153632160010153
422 1 6.077008674056883 10.128606240723894 12.152596539802662
423 1 6.077856630798436 8.105389921030142 14.177502854906718
424 1 4.052835976671517 10.129073364586906 14.177132156545296
425 1 8.100942931582589 8.104105509857643 12.15252162440468
426 1 10.125677242442205 10.129471809414124 12.149754746191077
427 1 10.128945459633497 8.110161271113567 14.176234891188127
428 1 8.106405466359899 10.13336825718319 14.177157489594686
429 1 12.150366975343713 8.107342239283428 12.150733429965772
430 1 14.175599018396213 10.135180337458301 12.147988143699926
431 1 14.175721536399749 8.114316635797891 14.173888451401378
432 1 12.156818320991725 10.141924419042398 14.175431907323567
433 1 4.0268059074218215e-5 12.151101874679517 12.15251100894245
434 1 2.0265989761844434 14.176012251635264 12.152325541033871
435 1 2.026712082032288 12.152456879645888 14.17674346103681
436 1 0.0003683058195765638 14.176303619847967 14.176263354094193
437 1 4.052228879425925 12.152166497532136 12.152539124196663
438 1 6.080331041931168 14.17838500767029 12.151726105412434
439 1 6.081912308669463 12.156423343745443 14.176349949125502
440 1 4.05516253283707 14.177567721005628 14.176107519748514
441 1 8.102630105673837 12.153329889238348 12.151067352371014
442 1 10.125726609729268 14.172416114929815 12.141597078300858
443 1 10.136180470462056 12.161224012184135 14.17733959740267
444 1 8.11476513709452 14.183168722477475 14.175778624258438
445 1 12.146421930176507 12.149243761221573 12.13870248853302
446 1 14.168225148956669 14.147691824751028 12.090574709249925
447 1 14.179694305281043 12.182294949891343 14.170282556012838
448 1 12.16160478485627 14.1818060894946 14.16634478644872
449 1 0.0002463397202075488 16.199845450689033 12.151991531749982
450 1 2.0269267742864 18.224175350485417 12.15238724676239
451 1 2.027864542873276 16.200817566861687 14.176328239931813
452 1 0.0004342999352458954 18.224445579750157 14.176461873445074
453 1 4.053996310847561 16.200255073501655 12.152437987782864
454 1 6.0824484012290885 18.2234176980345 12.152984871924927
455 1 6.08660035892337 16.20234769340073 14.176232653526537
456 1 4.056262957900396 18.22400788805047 14.176231918227082
457 1 8.110789013166597 16.203127823228442 12.151390817132912
458 1 10.14603514780623 18.225207074720377 12.157677198250907
459 1 10.157766331534798 16.20302201225883 14.173527778835393
460 1 8.122527115395425 18.221775619704413 14.17776228017865
461 1 12.129132421034003 16.1951102527766 12.10227341693284
462 1 14.156240146903116 18.243060388883137 12.074815893688493
463 1 14.15959083389019 16.169691059536426 13.96874329956848
464 1 12.21866093663461 18.21338612382152 14.184509220811476
465 1 0.0003133220785467171 20.248358551091624 12.15257219920444
466 1 2.026522223259288 22.27229321994596 12.153180549076929
467 1 2.027593948399153 20.248118434452042 14.176938200852637
468 1 0.0002940917968850655 22.272980679697877 14.17747535613131
469 1 4.054161305223927 20.247404760216632 12.152930060020125
470 1 6.079653116192256 22.270581098965867 12.15336848989558
471 1 6.085516717040108 20.24481039330031 14.177107107896578
472 1 4.054780850449619 22.27060281851512 14.177211906646628
473 1 8.10772354422682 20.245086031340563 12.151224797079266
474 1 10.12691859115993 22.27128444013323 12.14869159394767
475 1 10.143156450306359 20.238691330335943 14.172438982415322
476 1 8.11098970628464 22.265560634876167 14.177508836279907
477 1 12.145849159966676 20.251971854112107 12.131982788817881
478 1 14.173280005933812 22.251334996166083 12.158165228518442