# LAMMPS data file written by lammpsIO.jl

2047 atoms
1 atom types

0 32.3974677930295 xlo xhi
0 32.3974677930295 ylo yhi
0 32.3974677930295 zlo zhi

Atoms  # atomic

1 1 4.8506064223984684e-6 4.850606423367154e-6 4.850606423218263e-6
2 1 2.024965750172616 2.024965750172617 4.848456597657116e-6
3 1 2.024965750172617 4.848456597969741e-6 2.0249657501726164
4 1 4.848456598408117e-6 2.024965750172616 2.024965750172616
5 1 4.049904194173016 4.847193234026539e-6 4.8471932343725435e-6
6 1 6.0748262173458025 2.0249931908784795 4.833726558498615e-6
7 1 6.0748262173458025 4.833726558998012e-6 2.024993190878479
8 1 4.049918487918276 2.024981381779874 2.024981381779874
9 1 8.09969112123797 4.829242659051526e-6 4.829242658648957e-6
10 1 10.124527702360941 2.025041200541931 4.790219483046562e-6
11 1 10.124527702360941 4.790219483501322e-6 2.025041200541932
12 1 8.099714752426982 2.0250264641697973 2.025026464169798
13 1 12.149295357018197 4.791691237876139e-6 4.791691237797069e-6
14 1 14.174034791632156 2.0250829092223017 4.753471611186828e-6
15 1 14.174034791632156 4.753471610918445e-6 2.025082909222301
16 1 12.149314832499352 2.02508248061927 2.0250824806192713
17 1 4.847193234711721e-6 4.049904194173015 4.847193233523757e-6
18 1 2.024993190878479 6.0748262173458025 4.833726558355182e-6
19 1 2.024981381779874 4.0499184879182755 2.024981381779874
20 1 4.833726559109582e-6 6.0748262173458025 2.024993190878479
21 1 4.049930772312662 4.0499307723126625 4.8316702255876144e-6
22 1 6.07489605090236 6.0748960509023595 4.762770479426298e-6
23 1 6.0748682919394525 4.049977684886776 2.025023290559652
24 1 4.049977684886776 6.074868291939452 2.0250232905596524
25 1 8.099733170628934 4.050004222686902 4.772587375154316e-6
26 1 10.124598942014316 6.075002526826785 4.6637517810729935e-6
27 1 10.124575556810475 4.050075097773906 2.02509346298926
28 1 8.09980303542965 6.074975684963099 2.025101922883876
29 1 12.149327664655546 4.050090674479254 4.709431826027904e-6
30 1 14.174064610753407 6.075089202728418 4.596987972452777e-6
31 1 14.17406018209779 4.050167547529669 2.0251678843288983
32 1 12.149388608890604 6.075108180647564 2.02521278553366
33 1 4.829242658699119e-6 8.09969112123797 4.829242658316503e-6
34 1 2.025041200541932 10.124527702360941 4.790219484973471e-6
35 1 2.0250264641697977 8.099714752426982 2.0250264641697977
36 1 4.790219483687525e-6 10.124527702360941 2.0250412005419314
37 1 4.050004222686902 8.099733170628932 4.772587375370996e-6
38 1 6.075002526826785 10.124598942014316 4.663751782524202e-6
39 1 6.0749756849631 8.09980303542965 2.0251019228838762
40 1 4.050075097773906 10.124575556810475 2.025093462989259
41 1 8.09983172001317 8.099831720013169 4.6494934749714375e-6
42 1 10.124689750148715 10.124689750148713 4.516470707386347e-6
43 1 10.124689321527304 8.099939892378877 2.025237161648312
44 1 8.09993989237888 10.124689321527304 2.0252371616483122
45 1 12.149392180662993 8.099934415104805 4.531031011132335e-6
46 1 14.174092684964293 10.124749871044052 4.398475801568171e-6
47 1 14.174104579816966 8.100047426985986 2.025343401904126
48 1 12.149469563147761 10.12479572329506 2.025380295090654
49 1 4.791691239285317e-6 12.149295357018195 4.791691239000415e-6
50 1 2.025082909222301 14.174034791632156 4.75347161058753e-6
51 1 2.02508248061927 12.149314832499355 2.0250824806192713
52 1 4.753471609066104e-6 14.174034791632156 2.0250829092223017
53 1 4.050090674479253 12.149327664655548 4.7094318280236805e-6
54 1 6.075089202728418 14.174064610753407 4.596987973840939e-6
55 1 6.075108180647563 12.149388608890606 2.0252127855336606
56 1 4.050167547529667 14.174060182097792 2.0251678843288996
57 1 8.099934415104805 12.149392180662993 4.531031011318098e-6
58 1 10.124749871044052 14.174092684964293 4.398475803324371e-6
59 1 10.12479572329506 12.149469563147761 2.025380295090654
60 1 8.100047426985988 14.174104579816966 2.025343401904126
61 1 12.149441286373808 12.149441286373806 4.345622502146409e-6
62 1 14.174110096717802 14.174110096717802 4.2803638242745486e-6
63 1 14.17413737129088 12.149522918938512 2.025474795911195
64 1 12.149522918938514 14.17413737129088 2.025474795911196
65 1 4.773863012334656e-6 16.19873877687451 4.773863013652872e-6
66 1 2.0250829057693482 18.223442932160232 4.7534716430511735e-6
67 1 2.025116929846931 16.198738772738295 2.0251169298469316
68 1 4.7534716415740065e-6 18.22344293216023 2.0250829057693482
69 1 4.05013341353085 16.198738769810255 4.6756582542829085e-6
70 1 6.075089195480769 18.22341308323223 4.596987989180668e-6
71 1 6.0751736255001925 16.198738754125333 2.025267503382024
72 1 4.050167542415772 18.2234175224132 2.025167881886325
73 1 8.099977875965706 16.19873874705151 4.484279198143049e-6
74 1 10.124749858273825 18.22338494673811 4.3984756461985e-6
75 1 10.124845183767134 16.198738714033958 2.0254349476249516
76 1 8.100047413275293 18.2233730647039 2.025343391597319
77 1 12.149462980327458 16.198738711524133 4.37164190192337e-6
78 1 14.174110093325549 18.22336748107737 4.280363838931246e-6
79 1 14.174149179734565 16.19873868278789 2.0255098290892355
80 1 12.149522911394683 18.223340197714304 2.025474787320378
81 1 4.791690623066178e-6 20.248182115606316 4.791690623841006e-6
82 1 2.0250411938858104 22.272950367926946 4.790219446577145e-6
83 1 2.025082474933837 20.248162634105796 2.025082474933837
84 1 4.790219445875674e-6 22.272950367926946 2.02504119388581
85 1 4.050090664057028 20.24814979767139 4.709431237175027e-6
86 1 6.075002507757176 22.272879104645757 4.663751630011392e-6
87 1 6.075108163704631 20.248088815090608 2.0252127748425055
88 1 4.050075082720397 22.27290249701125 2.025093453186003
89 1 8.099934395683405 20.24808523146728 4.531030393900125e-6
90 1 10.124689731378474 22.272788233441588 4.5164707556788924e-6
91 1 10.124795704562064 20.248007784909422 2.02538027896034
92 1 8.099939872106907 22.272788670983484 2.0252371483654854
93 1 12.149441272229993 20.248036059204644 4.345621708100194e-6
94 1 14.174092674134956 22.272728051678367 4.39847561791389e-6
95 1 14.174137362856076 20.247954359796307 2.0254747779832245
96 1 12.149469545422132 22.272682184668803 2.025380272687049
97 1 4.829242306822776e-6 24.297786255354477 4.829242307405488e-6
98 1 2.024993186433053 26.32265214902456 4.833726252498163e-6
99 1 2.0250264575074652 24.297762621644434 2.025026457507464
100 1 4.833726252946482e-6 26.32265214902456 2.0249931864330515
101 1 4.050004211155903 24.297744202765614 4.772587081336036e-6
102 1 6.0748960405184915 26.32258229562831 4.762770248792258e-6
103 1 6.074975667653242 24.29767430494235 2.025101912077333
104 1 4.049977676530197 26.32261006001226 2.025023284959073
105 1 8.099831701840952 24.29764561135514 4.649493157310399e-6
106 1 10.12459892808581 26.32247575696289 4.663751421361348e-6
107 1 10.12468930152366 24.297537358380264 2.0252371436816454
108 1 8.099803018458227 26.322502605142546 2.0251019103670225
109 1 12.149392166027464 24.297542838066924 4.531030774796583e-6
110 1 14.17406460657345 26.32238901926235 4.5969877460999105e-6
111 1 14.174104572771437 24.297429752517395 2.025343382311396
112 1 12.149388599442547 26.322370023986444 2.0252127743607633
113 1 4.847193117048888e-6 28.347573237263866 4.847193116497439e-6
114 1 2.0249657493277096 30.3725126900357 4.848456550658078e-6
115 1 2.0249813778980887 28.347558940744012 2.0249813778980874
116 1 4.848456551405496e-6 30.372512690035702 2.0249657493277096
117 1 4.0499307659012445 28.347546654884603 4.831670068495084e-6
118 1 6.074826211614496 30.37248523022645 4.833726505880327e-6
119 1 6.074868283063081 28.347499705592288 2.0250232847267955
120 1 4.0499184826792 30.372497044814388 2.0249813769794267
121 1 8.099733163500169 28.347473160458474 4.772587454326431e-6
122 1 10.124527701251653 30.37243716030127 4.790219587081339e-6
123 1 10.124575548982191 28.34740221375939 2.025093457113096
124 1 8.099714751471248 30.37245190477186 2.025026464497923
125 1 12.149327659237358 28.3473866386209 4.7094319000500455e-6
126 1 14.17403479010448 30.372395390277436 4.753471609992684e-6
127 1 14.174060177167881 28.347309685605474 2.0251678740534853
128 1 12.149314827160023 30.372395801303387 2.0250824755522383
129 1 4.847193235807248e-6 4.8471932337496126e-6 4.049904194173017
130 1 2.024981381779874 2.024981381779873 4.049918487918276
131 1 2.0249931908784804 4.833726558793619e-6 6.0748262173458025
132 1 4.83372655831088e-6 2.02499319087848 6.0748262173458025
133 1 4.049930772312663 4.83167022534197e-6 4.049930772312663
134 1 6.074868291939452 2.025023290559652 4.049977684886776
135 1 6.074896050902361 4.762770479066057e-6 6.07489605090236
136 1 4.049977684886776 2.0250232905596515 6.074868291939452
137 1 8.099733170628934 4.772587375052493e-6 4.050004222686902
138 1 10.124575556810475 2.025093462989259 4.050075097773906
139 1 10.124598942014316 4.663751782573284e-6 6.075002526826785
140 1 8.09980303542965 2.025101922883876 6.074975684963099
141 1 12.14932766465555 4.709431827102201e-6 4.050090674479253
142 1 14.174060182097792 2.0251678843288996 4.050167547529667
143 1 14.174064610753408 4.596987972615285e-6 6.075089202728418
144 1 12.149388608890606 2.0252127855336606 6.075108180647563
145 1 4.831670225757619e-6 4.049930772312663 4.049930772312663
146 1 2.025023290559653 6.074868291939452 4.049977684886776
147 1 2.0250232905596524 4.049977684886776 6.074868291939452
148 1 4.762770479283464e-6 6.0748960509023595 6.0748960509023595
149 1 4.049971837470456 4.049971837470456 4.049971837470456
150 1 6.074973648544497 6.074973648544498 4.050083766044336
151 1 6.074973648544498 4.050083766044336 6.074973648544497
152 1 4.050083766044336 6.074973648544497 6.074973648544497
153 1 8.099798888790142 4.050080177171843 4.050080177171843
154 1 10.124713236436934 6.075159110446091 4.050277932896609
155 1 10.124713236436934 4.050277932896608 6.075159110446091
156 1 8.099993380338434 6.07519066622373 6.075190666223729
157 1 12.149395876601023 4.050231098097624 4.050231098097624
158 1 14.174145883192919 6.075362776311665 4.050502380299898
159 1 14.174145883192919 4.0505023802999 6.075362776311665
160 1 12.149609822196378 6.075517567713979 6.075517567713979
161 1 4.772587374790808e-6 8.099733170628934 4.050004222686902
162 1 2.0250934629892594 10.124575556810475 4.050075097773906
163 1 2.0251019228838762 8.09980303542965 6.074975684963099
164 1 4.6637517813198655e-6 10.124598942014314 6.075002526826784
165 1 4.050080177171843 8.099798888790142 4.050080177171843
166 1 6.075159110446091 10.124713236436934 4.050277932896608
167 1 6.075190666223729 8.099993380338434 6.075190666223729
168 1 4.050277932896608 10.124713236436934 6.075159110446091
169 1 8.09997649671277 8.099976496712772 4.050294136079084
170 1 10.124928034541773 10.124928034541778 4.05063945954291
171 1 10.125017096381226 8.100325730849658 6.075584789331656
172 1 8.100325730849658 10.125017096381226 6.075584789331656
173 1 12.149563857162342 8.100211585678926 4.050604081961954
174 1 14.17422601405529 10.125103469619383 4.050913585321317
175 1 14.174394346604089 8.10077683863748 6.076145740053707
176 1 12.149970348666958 10.12544003534787 6.07628083008246
177 1 4.709431826575924e-6 12.149327664655546 4.050090674479253
178 1 2.025167884328898 14.174060182097792 4.050167547529669
179 1 2.0252127855336592 12.149388608890606 6.075108180647562
180 1 4.596987972155085e-6 14.174064610753407 6.075089202728417
181 1 4.0502310980976235 12.149395876601025 4.050231098097624
182 1 6.075362776311664 14.174145883192923 4.050502380299897
183 1 6.075517567713979 12.149609822196378 6.0755175677139786
184 1 4.050502380299897 14.174145883192919 6.075362776311664
185 1 8.100211585678926 12.149563857162343 4.050604081961954
186 1 10.125103469619383 14.17422601405529 4.050913585321316
187 1 10.12544003534787 12.149970348666958 6.076280830082459
188 1 8.100776838637476 14.174394346604087 6.076145740053707
189 1 12.149697051648594 12.149697051648593 4.0509609201318355
190 1 14.17427314822784 14.17427314822784 4.05113074286575
191 1 14.174496606271477 12.150244835092511 6.076891392795687
192 1 12.150244835092511 14.174496606271475 6.076891392795686
193 1 4.675658251558912e-6 16.19873876981025 4.050133413530852
194 1 2.0251678818863246 18.2234175224132 4.050167542415772
195 1 2.0252675033820235 16.198738754125333 6.0751736255001925
196 1 4.596987986186805e-6 18.223413083232227 6.075089195480767
197 1 4.050342593902466 16.198738753740386 4.050342593902467
198 1 6.0753627622880595 18.223331753957623 4.050502366340856
199 1 6.075874116083029 16.198738696770008 6.07587411608303
200 1 4.050502366340856 18.223331753957623 6.07536276228806
201 1 8.10034566770867 16.198738703315986 4.050760673446569
202 1 10.125103461953415 18.22325151526568 4.050913572354432
203 1 10.125746774430686 16.19873861958616 6.076649875565714
204 1 8.100776829624689 18.223083149394594 6.076145729003858
205 1 12.149765709266449 16.198738652383152 4.051086241558444
206 1 14.174273141397157 18.223204295864214 4.0511307311591
207 1 14.174585397848285 16.198738566751636 6.077134087563742
208 1 12.15024483202862 18.222980740320228 6.0768913786729355
209 1 4.7094312370811134e-6 20.24814979767139 4.050090664057028
210 1 2.025093453186003 22.27290249701125 4.050075082720398
211 1 2.0252127748425055 20.2480888150906 6.075108163704631
212 1 4.663751631535251e-6 22.272879104645757 6.075002507757175
213 1 4.050231083426394 20.248081544726666 4.050231083426395
214 1 6.075159088964288 22.2727647423768 4.050277913861741
215 1 6.0755175437507045 20.247867486123802 6.075517543750703
216 1 4.050277913861741 22.2727647423768 6.075159088964289
217 1 8.100211564605862 20.247913465046565 4.050604058599515
218 1 10.124928011343783 22.272549822453467 4.050639431606076
219 1 10.125440021677198 20.247506793252718 6.076280812104896
220 1 8.100325707157117 22.27246071995964 6.0755847612273675
221 1 12.14969703996706 20.24778015284683 4.050960897067964
222 1 14.174226008436111 22.272374293017492 4.050913551064347
223 1 14.174496593921901 20.24723218155279 6.076891355416804
224 1 12.149970320720575 22.272037614921015 6.076280786607456
225 1 4.772587081987506e-6 24.297744202765614 4.050004211155901
226 1 2.025023284959074 26.32261006001226 4.049977676530197
227 1 2.0251019120773335 24.29767430494235 6.074975667653241
228 1 4.762770250744636e-6 26.322582295628308 6.0748960405184915
229 1 4.050080161415734 24.297678444879175 4.050080161415733
230 1 6.074973629722649 26.322504624170726 4.050083746625219
231 1 6.075190636949663 24.297483813108137 6.075190636949662
232 1 4.050083746625221 26.322504624170726 6.074973629722649
233 1 8.099976471124167 24.297500716243324 4.050294108671104
234 1 10.124713218920832 26.32231903556745 4.050277907726144
235 1 10.125017070020098 24.29715127533192 6.07558475098851
236 1 8.099993349566176 26.322287435864986 6.075190634323808
237 1 12.14956384051546 24.297265508004145 4.050604050607825
238 1 14.174145869507601 26.322115263336062 4.050502351337501
239 1 14.174394334480116 24.296700058209307 6.076145697673452
240 1 12.149609811237061 26.321960345138603 6.075517532309131
241 1 4.831670070344837e-6 28.347546654884603 4.049930765901243
242 1 2.0249813769794276 30.372497044814388 4.0499184826792
243 1 2.025023284726797 28.347499705592288 6.07486828306308
244 1 4.8337265066268605e-6 30.372485230226452 6.074826211614496
245 1 4.0499718281131525 28.347505547636928 4.049971828113152
246 1 6.074868290141601 30.372455064466727 4.049977684337027
247 1 6.0749736366974085 28.347393491310044 6.0749736366974085
248 1 4.049977684337027 30.372455064466727 6.0748682901416
249 1 8.099798877209006 28.347397098113696 4.050080166797829
250 1 10.124575545335222 30.37238475999872 4.050075087566611
251 1 10.124713206199246 28.347199126569585 6.0751590716934025
252 1 8.099803020867936 30.37237625301234 6.074975670565925
253 1 12.149395861224034 28.347246038208926 4.050231071818106
254 1 14.17406018448523 30.372310234809376 4.050167534249515
255 1 14.174145880689082 28.346974534464078 6.0753627471439655
256 1 12.149388594401874 30.372265208253374 6.075108164999746
257 1 4.829242659015377e-6 4.829242659434097e-6 8.09969112123797
258 1 2.0250264641697973 2.0250264641697973 8.099714752426983
259 1 2.025041200541931 4.790219485655258e-6 10.124527702360941
260 1 4.790219484526448e-6 2.02504120054193 10.124527702360941
261 1 4.050004222686903 4.772587375210931e-6 8.099733170628934
262 1 6.0749756849631 2.025101922883876 8.09980303542965
263 1 6.075002526826784 4.6637517831913696e-6 10.124598942014316
264 1 4.050075097773906 2.02509346298926 10.124575556810475
265 1 8.09983172001317 4.649493474716483e-6 8.09983172001317
266 1 10.124689321527304 2.025237161648311 8.099939892378877
267 1 10.124689750148713 4.516470706971047e-6 10.124689750148713
268 1 8.09993989237888 2.0252371616483114 10.124689321527304
269 1 12.149392180662993 4.531031011750516e-6 8.099934415104807
270 1 14.174104579816966 2.0253434019041263 8.10004742698599
271 1 14.174092684964295 4.398475803283982e-6 10.124749871044054
272 1 12.149469563147763 2.0253802950906534 10.12479572329506
273 1 4.7725873756537395e-6 4.050004222686902 8.099733170628932
274 1 2.0251019228838762 6.074975684963099 8.099803035429648
275 1 2.02509346298926 4.050075097773906 10.124575556810475
276 1 4.663751781380791e-6 6.075002526826786 10.124598942014316
277 1 4.050080177171843 4.050080177171843 8.099798888790142
278 1 6.07519066622373 6.075190666223728 8.099993380338434
279 1 6.075159110446091 4.050277932896608 10.124713236436934
280 1 4.050277932896608 6.075159110446088 10.124713236436934
281 1 8.09997649671277 4.050294136079084 8.099976496712772
282 1 10.125017096381226 6.075584789331656 8.100325730849656
283 1 10.124928034541773 4.050639459542909 10.124928034541773
284 1 8.100325730849658 6.075584789331655 10.125017096381226
285 1 12.149563857162347 4.050604081961954 8.100211585678926
286 1 14.174394346604089 6.076145740053707 8.100776838637474
287 1 14.17422601405529 4.050913585321317 10.125103469619386
288 1 12.149970348666956 6.0762808300824585 10.12544003534787
289 1 4.649493474676368e-6 8.099831720013169 8.099831720013169
290 1 2.0252371616483114 10.124689321527304 8.099939892378877
291 1 2.025237161648311 8.099939892378877 10.124689321527304
292 1 4.516470706955487e-6 10.124689750148713 10.124689750148713
293 1 4.050294136079085 8.09997649671277 8.099976496712772
294 1 6.0755847893316535 10.125017096381226 8.100325730849658
295 1 6.075584789331656 8.100325730849658 10.125017096381226
296 1 4.050639459542909 10.124928034541773 10.124928034541773
297 1 8.100358706304377 8.100358706304377 8.100358706304377
298 1 10.125552554130385 10.125552554130387 8.100980229113462
299 1 10.125552554130385 8.100980229113464 10.125552554130387
300 1 8.100980229113462 10.125552554130387 10.125552554130387
301 1 12.150076000988225 8.100969574920795 8.100969574920795
302 1 14.175083999799908 10.126533845247977 8.102412383159203
303 1 14.175083999799908 8.102412383159198 10.126533845247979
304 1 12.150897336976213 10.126471077243732 10.126471077243734
305 1 4.531031011674484e-6 12.149392180662995 8.099934415104805
306 1 2.025343401904124 14.174104579816966 8.100047426985988
307 1 2.025380295090653 12.149469563147761 10.124795723295058
308 1 4.3984758030052456e-6 14.174092684964295 10.12474987104405
309 1 4.0506040819619535 12.149563857162343 8.100211585678926
310 1 6.076145740053706 14.174394346604087 8.100776838637476
311 1 6.0762808300824585 12.149970348666956 10.12544003534787
312 1 4.050913585321315 14.17422601405529 10.125103469619383
313 1 8.100969574920795 12.150076000988225 8.100969574920795
314 1 10.126533845247977 14.175083999799908 8.102412383159201
315 1 10.126471077243732 12.150897336976213 10.126471077243734
316 1 8.102412383159201 14.175083999799908 10.126533845247977
317 1 12.150834954992439 12.150834954992439 8.102539223412881
318 1 14.175201118960427 14.175201118960425 8.103847810048594
319 1 14.176805074963795 12.152252410289327 10.129736585130077
320 1 12.152252410289327 14.176805074963795 10.129736585130077
321 1 4.484279194444402e-6 16.198738747051515 8.099977875965704
322 1 2.025343391597319 18.2233730647039 8.100047413275293
323 1 2.0254349476249525 16.198738714033958 10.124845183767134
324 1 4.398475644195937e-6 18.223384946738115 10.124749858273825
325 1 4.050760673446569 16.198738703315986 8.10034566770867
326 1 6.076145729003859 18.22308314939459 8.10077682962469
327 1 6.076649875565714 16.19873861958616 10.125746774430684
328 1 4.050913572354432 18.22325151526568 10.125103461953417
329 1 8.102256158357328 16.198738607562603 8.102256158357328
330 1 10.12653383871396 18.222393287095308 8.102412380361786
331 1 10.131416928116181 16.19873849597478 10.131416928116181
332 1 8.102412380361786 18.222393287095308 10.12653383871396
333 1 12.15150799747902 16.198738513938235 8.103369793191392
334 1 14.17520111623459 18.222275978549543 8.103847790029409
335 1 14.177084282739917 16.198738404008594 10.132727395554133
336 1 12.15225239473158 18.22067192097941 10.129736560672075
337 1 4.531030395014266e-6 20.24808523146728 8.099934395683405
338 1 2.025237148365486 22.272788670983484 8.099939872106907
339 1 2.02538027896034 20.24800778490942 10.124795704562064
340 1 4.516470757129009e-6 22.272788233441588 10.124689731378474
341 1 4.0506040585995144 20.247913465046565 8.100211564605864
342 1 6.075584761227369 22.27246071995964 8.100325707157117
343 1 6.076280812104895 20.247506793252718 10.125440021677196
344 1 4.050639431606076 22.272549822453467 10.124928011343783
345 1 8.100969561698093 20.247401111825678 8.100969561698093
346 1 10.125552513680708 22.271925024448592 8.100980173229678
347 1 10.126471041812183 20.246579524293296 10.126471041812183
348 1 8.100980173229678 22.271925024448596 10.125552513680708
349 1 12.150834930586226 20.24664195281167 8.102539189546466
350 1 14.17508401675027 22.27094357837712 8.102412369590313
351 1 14.17680507320031 20.245224331830475 10.129736575035045
352 1 12.150897356821222 22.271006251859376 10.12647109043864
353 1 4.6494931569007444e-6 24.297645611355136 8.099831701840952
354 1 2.025101910367024 26.322502605142546 8.099803018458227
355 1 2.0252371436816463 24.297537358380264 10.12468930152366
356 1 4.663751422245826e-6 26.32247575696289 10.12459892808581
357 1 4.050294108671104 24.297500716243324 8.099976471124169
358 1 6.07519063432381 26.322287435864986 8.099993349566175
359 1 6.0755847509885115 24.29715127533192 10.125017070020096
360 1 4.050277907726145 26.32231903556745 10.124713218920832
361 1 8.100358671635291 24.297118273112186 8.100358671635291
362 1 10.125017078918237 26.321893047349747 8.100325717511952
363 1 10.125552520898578 24.296496569207502 10.125552520898578
364 1 8.100325717511954 26.321893047349747 10.125017078918237
365 1 12.150075977064544 24.296507239834387 8.100969537461573
366 1 14.174394305966096 26.321331926585824 8.100776769374367
367 1 14.175083967775594 24.295064178079862 10.126533788567775
368 1 12.149970268383665 26.321196719790976 10.125439928479743
369 1 4.772587454297795e-6 28.347473160458474 8.09973316350017
370 1 2.025026464497923 30.37245190477186 8.099714751471247
371 1 2.0250934571130967 28.34740221375939 10.12457554898219
372 1 4.790219586029526e-6 30.37243716030127 10.12452770125165
373 1 4.05008016679783 28.347397098113696 8.099798877209006
374 1 6.074975670565925 30.37237625301234 8.099803020867935
375 1 6.0751590716934025 28.34719912656959 10.124713206199246
376 1 4.050075087566611 30.37238475999872 10.12457554533522
377 1 8.099976455246503 28.34718288653337 8.099976455246503
378 1 10.124689304654138 30.372240753697827 8.099939857702177
379 1 10.12492801608481 28.346837276356563 10.12492801608481
380 1 8.099939857702179 30.372240753697834 10.124689304654138
381 1 12.149563846004916 28.34687271175425 8.100211559056556
382 1 14.174104573483932 30.372134288763114 8.100047419351688
383 1 14.174226002638909 28.34656302089154 10.125103426567868
384 1 12.149469577429624 30.37209726709257 10.124795738965219
385 1 4.791691238052416e-6 4.791691238509592e-6 12.149295357018197
386 1 2.0250824806192704 2.0250824806192718 12.149314832499355
387 1 2.025082909222301 4.753471608678664e-6 14.17403479163216
388 1 4.753471609249423e-6 2.0250829092223013 14.174034791632156
389 1 4.050090674479255 4.709431827444278e-6 12.14932766465555
390 1 6.075108180647562 2.0252127855336597 12.149388608890606
391 1 6.075089202728417 4.596987972580604e-6 14.174064610753408
392 1 4.050167547529669 2.0251678843288983 14.174060182097792
393 1 8.099934415104805 4.531031012268836e-6 12.149392180662993
394 1 10.12479572329506 2.0253802950906534 12.149469563147761
395 1 10.124749871044052 4.398475802187713e-6 14.174092684964291
396 1 8.100047426985988 2.025343401904126 14.174104579816966
397 1 12.14944128637381 4.3456225008609305e-6 12.149441286373806
398 1 14.17413737129088 2.025474795911196 12.149522918938514
399 1 14.174110096717804 4.280363821528465e-6 14.174110096717802
400 1 12.149522918938512 2.025474795911197 14.174137371290877
401 1 4.70943182730305e-6 4.050090674479255 12.149327664655548
402 1 2.0252127855336597 6.075108180647563 12.149388608890604
403 1 2.0251678843288974 4.050167547529669 14.174060182097792
404 1 4.596987973101437e-6 6.075089202728417 14.174064610753407
405 1 4.050231098097624 4.050231098097624 12.149395876601025
406 1 6.07551756771398 6.075517567713979 12.149609822196378
407 1 6.075362776311665 4.050502380299898 14.174145883192919
408 1 4.050502380299897 6.075362776311665 14.174145883192919
409 1 8.100211585678926 4.050604081961954 12.149563857162342
410 1 10.12544003534787 6.07628083008246 12.149970348666956
411 1 10.125103469619383 4.050913585321317 14.174226014055288
412 1 8.100776838637477 6.076145740053707 14.174394346604087
413 1 12.149697051648594 4.0509609201318355 12.149697051648593
414 1 14.174496606271477 6.076891392795686 12.150244835092517
415 1 14.17427314822784 4.05113074286575 14.17427314822784
416 1 12.150244835092511 6.076891392795686 14.174496606271477
417 1 4.531031011590173e-6 8.099934415104805 12.149392180662993
418 1 2.0253802950906534 10.12479572329506 12.149469563147761
419 1 2.0253434019041263 8.100047426985986 14.174104579816966
420 1 4.398475802561638e-6 10.124749871044052 14.174092684964291
421 1 4.050604081961954 8.100211585678926 12.149563857162342
422 1 6.0762808300824585 10.12544003534787 12.149970348666956
423 1 6.076145740053707 8.100776838637477 14.174394346604087
424 1 4.050913585321316 10.125103469619383 14.174226014055288
425 1 8.100969574920795 8.100969574920795 12.150076000988225
426 1 10.126471077243732 10.126471077243734 12.150897336976213
427 1 10.126533845247977 8.102412383159201 14.175083999799908
428 1 8.102412383159201 10.126533845247977 14.17508399979991
429 1 12.150834954992439 8.10253922341288 12.150834954992439
430 1 14.176805074963795 10.129736585130074 12.152252410289327
431 1 14.175201118960429 8.103847810048592 14.175201118960427
432 1 12.152252410289327 10.129736585130077 14.176805074963795
433 1 4.345622501597029e-6 12.149441286373808 12.149441286373804
434 1 2.0254747959111965 14.174137371290877 12.149522918938512
435 1 2.0254747959111965 12.149522918938512 14.174137371290877
436 1 4.280363825330789e-6 14.174110096717802 14.174110096717802
437 1 4.0509609201318355 12.149697051648593 12.14969705164859
438 1 6.076891392795685 14.174496606271477 12.150244835092511
439 1 6.076891392795686 12.150244835092517 14.174496606271475
440 1 4.05113074286575 14.17427314822784 14.17427314822784
441 1 8.102539223412881 12.150834954992439 12.150834954992439
442 1 10.129736585130077 14.176805074963795 12.152252410289327
443 1 10.129736585130077 12.152252410289327 14.176805074963793
444 1 8.103847810048592 14.175201118960429 14.175201118960427
445 1 12.151265432602377 12.151265432602377 12.151265432602377
446 1 14.176425780746142 14.176425780746138 12.1561278015461
447 1 14.176425780746143 12.156127801546097 14.176425780746142
448 1 12.1561278015461 14.176425780746142 14.176425780746142
449 1 4.37164190118053e-6 16.19873871152413 12.149462980327458
450 1 2.0254747873203764 18.2233401977143 12.14952291139468
451 1 2.0255098290892355 16.198738682787887 14.174149179734565
452 1 4.280363837633945e-6 18.22336748107737 14.174110093325547
453 1 4.051086241558444 16.198738652383152 12.149765709266449
454 1 6.076891378672937 18.222980740320228 12.15024483202862
455 1 6.077134087563745 16.19873856675164 14.174585397848285
456 1 4.051130731159101 18.223204295864214 14.174273141397157
457 1 8.103369793191392 16.198738513938235 12.15150799747902
458 1 10.129736560672075 18.22067192097941 12.15225239473158
459 1 10.132727395554136 16.198738404008598 14.177084282739916
460 1 8.103847790029409 18.222275978549543 14.175201116234591
461 1 12.169984381516526 16.198738370752153 12.169984381516526
462 1 14.176425794402425 18.221050994475753 12.156127791161962
463 1 14.215769167864345 16.198738297770028 14.215769167864346
464 1 12.156127791161964 18.221050994475753 14.176425794402423
465 1 4.345621708142622e-6 20.248036059204644 12.149441272229991
466 1 2.025380272687049 22.272682184668803 12.14946954542213
467 1 2.0254747779832245 20.24795435979631 14.174137362856076
468 1 4.39847561818588e-6 22.272728051678367 14.174092674134956
469 1 4.050960897067962 20.24778015284683 12.14969703996706
470 1 6.076280786607457 22.272037614921015 12.149970320720573
471 1 6.076891355416804 20.24723218155279 14.174496593921907
472 1 4.050913551064348 22.27237429301749 14.174226008436111
473 1 8.102539189546466 20.24664195281167 12.150834930586228
474 1 10.12647109043864 22.27100625185937 12.150897356821222
475 1 10.129736575035045 20.245224331830475 14.17680507320031
476 1 8.102412369590311 22.270943578377118 14.17508401675027
477 1 12.151265436034246 20.246211299225163 12.151265436034246
478 1 14.176804936655666 22.26774040614065 12.152252328322918
479 1 14.176425764306101 20.241348717299463 14.176425764306105
480 1 12.152252328322916 22.26774040614065 14.176804936655671
481 1 4.531030773994618e-6 24.297542838066924 12.149392166027468