# LAMMPS data file written by lammpsIO.jl

2047 atoms
1 atom types

0 32.3974677930295 xlo xhi
0 32.3974677930295 ylo yhi
0 32.3974677930295 zlo zhi

Atoms  # atomic

1 1 -0.00442258269164509 0.002865281940808282 -0.0018188689153306745
2 1 2.0217726877638236 2.0274570923987305 -0.0016949723880531945
3 1 2.021768941295027 0.0029251040264858196 2.022534489055308
4 1 -0.004208423885136495 2.0272969339985543 2.022438396587277
5 1 4.047474702735103 0.0029075234310885927 -0.0017124984360299038
6 1 6.072856805219881 2.0279102358694128 -0.001377455989290826
7 1 6.072960273612556 0.002925595494365218 2.0233605008927147
8 1 4.047640933447416 2.0277158565684648 2.0229450097093005
9 1 8.097689293895854 0.0028354384484340057 -0.0012852072615574305
10 1 10.12190492054348 2.0284116585068808 -0.0007848315149570482
11 1 10.122064937205648 0.0028214788059126783 2.0245395924438965
12 1 8.097800136055659 2.0282668336362417 2.0240543767845787
13 1 12.145715240930231 0.0026813321632197375 -0.000709572411502971
14 1 14.169007814436116 2.028664474063671 -0.00022467125990863323
15 1 14.169114460144508 0.002637019907638882 2.025479649871866
16 1 12.145775221638955 2.028766417284964 2.025256466545525
17 1 -0.003909518462407436 4.051845497542524 -0.001444622304924092
18 1 2.0225507179886755 6.0769180273121295 -0.0011360523639874591
19 1 2.0221737107692954 4.052115614767044 2.0227334987388996
20 1 -0.003294051993242924 6.07651628834254 2.022705856733913
21 1 4.0478011334129755 4.0525116208303515 -0.0013362118005931258
22 1 6.073505484612445 6.078131572867783 -0.0007269315017445878
23 1 6.0732342547711236 4.053082786013843 2.0236745117083244
24 1 4.0483076499749915 6.077452175050469 2.0233449189601225
25 1 8.097870768498547 4.053542936820557 -0.0007754634471079176
26 1 10.122555527416045 6.079598021584582 4.44285958320834e-5
27 1 10.122337343487514 4.054241541906971 2.0250850693248243
28 1 8.098526956508318 6.079004756489305 2.024806201194493
29 1 12.145814418723495 4.054451703621945 -7.561619051137118e-5
30 1 14.16961720574691 6.080441665027393 0.000743705842110057
31 1 14.169416341242515 4.054983510467964 2.0262061258401496
32 1 12.146665693717885 6.0804646813276335 2.0264806408030984
33 1 -0.002783412755660848 8.101476846959741 -0.0007889079521724859
34 1 2.023648325030668 10.127003843633071 -0.00047233897250353787
35 1 2.0231611731171038 8.101828918998038 2.023100042088547
36 1 -0.002056522476357791 10.126532409622493 2.023026451875609
37 1 4.0487336517339845 8.102487408225612 -0.000633669530073769
38 1 6.074642053812277 10.128326748063138 2.1108424607909402e-5
39 1 6.074163825033766 8.103261364976406 2.024363970731827
40 1 4.049339271855652 10.127525944226695 2.023864752185393
41 1 8.098909459011752 8.104113653454496 7.26542567642361e-5
42 1 10.12399891230343 10.129931279079203 0.0009881539019155382
43 1 10.123583453356229 8.105110576348247 2.0263999166224327
44 1 8.099814910118647 10.129165838948088 2.025885659673215
45 1 12.146999947020129 8.105559151567189 0.0009800898024756308
46 1 14.171220182489998 10.130826578492751 0.0018601492981605208
47 1 14.170766289942796 8.106313725586284 2.0280293628899813
48 1 12.14829536276093 10.130825493915331 2.0283533712813298
49 1 -0.0016658165993937036 12.151893949921277 -0.0002037909469511112
50 1 2.024501166655829 14.177463469278283 -8.560107425756212e-5
51 1 2.024195267758281 12.152150593026969 2.023462156041482
52 1 -0.001229228159780542 14.17719636738507 2.0232604086072516
53 1 4.049805334670748 12.152694556622217 -5.09096610090956e-5
54 1 6.075684400551824 14.178091506715042 0.0004501264969705397
55 1 6.075331939784355 12.15321309578161 2.0251053633024676
56 1 4.050240349648805 14.177673335421687 2.0242829557441504
57 1 8.100231739915806 12.153942611074687 0.0007832179164150941
58 1 10.125259518592424 14.178796491890594 0.0015329062798890099
59 1 10.125121264012863 12.154629954116537 2.027914715361179
60 1 8.101067112547083 14.17841157563115 2.0268819188472578
61 1 12.148595544100314 12.155012748866152 0.0018698902190119337
62 1 14.172628958959208 14.179127296243047 0.002576342084361721
63 1 14.172462893692822 12.155598589067157 2.0302088975574533
64 1 12.149746139836354 14.179111832908989 2.030012992258222
65 1 -0.0012361131474608819 16.20263316382453 -4.17925393540302e-5
66 1 2.0245901412016694 18.227754812507225 -0.00020273203459598727
67 1 2.0246723487474108 16.20260973496278 2.02362686815389
68 1 -0.0012889520053817607 18.227858677780304 2.023298667213069
69 1 4.050439899578529 16.20268556308544 9.044558357981489e-5
70 1 6.0759967266157044 18.227219965088 0.0002747660939694077
71 1 6.076131304832574 16.20265168236761 2.0255700247486788
72 1 4.050455977997271 18.227473540831635 2.024325010593981
73 1 8.101064824187707 16.202737729759573 0.0009437931784288323
74 1 10.1256685581853 18.2265298265467 0.0013256382058399478
75 1 10.1261639545483 16.202613520884658 2.0288200302266466
76 1 8.10150112821548 18.226723574958807 2.0270026895103213
77 1 12.14952302696497 16.202690036103633 0.0021335952831344988
78 1 14.17294162867732 18.225969165533893 0.002398893589351482
79 1 14.17346281065573 16.2024834348701 2.031519999739838
80 1 12.150186298776859 18.22583117843412 2.0302884666803376
81 1 -0.001731289646012361 20.253005585140027 -0.00039240746020228063
82 1 2.0238277014493855 22.277571967371188 -0.0007703622296914914
83 1 2.0243104225781594 20.252708855590743 2.023474444362123
84 1 -0.0021916163477973963 22.277913171429667 2.023078162750396
85 1 4.0501623373002635 20.25228253711034 -0.0003273330855417017
86 1 6.075301245189427 22.276272541392938 -0.0004115540539984672
87 1 6.0758588474700455 20.2516129646597 2.025138070703546
88 1 4.049733235081499 22.276984569048274 2.0238311242574536
89 1 8.100906706615046 20.25106639133979 0.00040126996035966565
90 1 10.124927275644772 22.274565849463762 0.0004360841306629857
91 1 10.125897049391991 20.250035462878095 2.0281556875792255
92 1 8.10061484248713 22.275216666044475 2.025914286036423
93 1 12.149307727615358 20.24983338150617 0.0014743735473671425
94 1 14.17195097036246 22.273334927992373 0.0012949204500854966
95 1 14.173065858132519 20.248757196280668 2.03081116499446
96 1 12.149206942430602 22.273222813501942 2.028731384103895
97 1 -0.002859789235848019 24.302632365998754 -0.001070754121158015
98 1 2.022707473390708 26.326888021581414 -0.0014312428769635388
99 1 2.023291293536401 24.302308987521062 2.0230688687317864
100 1 -0.0034066284240660046 26.32720353873438 2.02271707024856
101 1 4.049170318872803 24.30170174241569 -0.0010156122656758177
102 1 6.07408849013095 26.32566312219959 -0.0011384588292256217
103 1 6.074779358788895 24.300846962067176 2.024289559574775
104 1 4.048636630686235 26.32636561962578 2.023269019833987
105 1 8.099769045127262 24.30001537941615 -0.0004714560881497257
106 1 10.123427337918471 26.32399871470966 -0.0005327649381283888
107 1 10.124516790521847 24.298770034564267 2.0264544769218165
108 1 8.099238625329418 26.324713857297393 2.0247324761478587
109 1 12.147963583012586 24.298284986995025 0.0003169947165624586
110 1 14.170336527087706 26.32275679415116 9.241635119079052e-5
111 1 14.171595000147494 24.29703268418184 2.0285100146133095
112 1 12.147541502527272 26.322861546655542 2.026597485391349
113 1 -0.003964652667203452 28.351602044031157 -0.0016370813495380867
114 1 2.0218357548127597 30.375877554115657 -0.0018047816546508692
115 1 2.022250978105753 28.35141992180878 2.0226971976453436
116 1 -0.0042535742420295 30.375987592619246 2.0224279485548124
117 1 4.048081322757436 28.351025525557407 -0.0015886268387883614
118 1 6.073088305675166 30.37538842824706 -0.0015396032890503367
119 1 6.073625267709129 28.3504633428088 2.023602912170999
120 1 4.047769097809726 30.375687157835266 2.0229150477005837
121 1 8.098436885222645 28.34986700244492 -0.0011451798898390873
122 1 10.122248145126655 30.37466314766355 -0.0010176652194087397
123 1 10.122974018019013 28.349077745117185 2.025057223836138
124 1 8.098090247686928 30.375023620064415 2.0240182850120703
125 1 12.14646099998615 28.348634887245908 -0.0005639489026614345
126 1 14.169297609191295 30.374040350232143 -0.000500796588012381
127 1 14.169990096104577 28.347873372939095 2.0263635134688394
128 1 12.14612935800322 30.374213501502126 2.0252716719195134
129 1 -0.00402590846070386 0.0028754292849407087 4.046616429176547
130 1 2.022192197400784 2.0274195513253694 4.046896367979092
131 1 2.0225909352088007 0.0029048239871509555 6.07133324264186
132 1 -0.0032850872107195255 2.0270048184978102 6.070889861268942
133 1 4.047914513822653 0.002945312503080132 4.047445556085157
134 1 6.073309306578674 2.0280131702549715 4.048238832963008
135 1 6.073787960235579 0.0028694931689780484 6.0730117367048795
136 1 4.048407422010733 2.0276051101372716 6.0720133311191695
137 1 8.09813802738656 0.0028635026647015273 4.049090444530821
138 1 10.1224147365317 2.0286646385972413 4.0500442093641995
139 1 10.122904446423817 0.0026030937289021356 6.075186309655174
140 1 8.098622042488135 2.0283577583571484 6.074089569177515
141 1 12.146072101447901 0.0026472224654936686 4.050722695102338
142 1 14.169453290151743 2.029037478097157 4.051347376393665
143 1 14.169828916974632 0.0021920795030627637 6.076645507226333
144 1 12.14670548475922 2.028990716007067 6.07612916331441
145 1 -0.003448991408250231 4.051630463855743 4.046602408359481
146 1 2.022942891378387 6.076690886286621 4.046998738770552
147 1 2.0229977613398655 4.0517368509816105 6.071273136478753
148 1 -0.0021196913226124406 6.075786472465918 6.070678893204138
149 1 4.048185982648032 4.052487720077219 4.047554048684317
150 1 6.07390716459665 6.078133843326278 4.048628771472222
151 1 6.073905221920962 4.0529963222532555 6.073045249383935
152 1 4.048874019388708 6.077057603534911 6.072064874765826
153 1 8.098439456557783 4.053761945480482 4.0493753430844395
154 1 10.12346178158505 6.080003678504049 4.051086307937047
155 1 10.123419795909093 4.054591537014141 6.07553243651142
156 1 8.099313839699967 6.07891989546722 6.074567918762015
157 1 12.146659178814184 4.0550513006699695 4.051386806690904
158 1 14.170809045376549 6.081503331312044 4.053238719078627
159 1 14.170766080425492 4.055811935789637 6.077531659561382
160 1 12.148367912630999 6.081296067220417 6.077791010333964
161 1 -0.002166610718934324 8.10110811586959 4.046596300173633
162 1 2.0239818789014095 10.126659361348148 4.047093224800056
163 1 2.0239152946599575 8.101137550104962 6.071140757118296
164 1 -0.0006211532559214054 10.125675382258343 6.070400865619862
165 1 4.048990560678423 8.1022569802406 4.047819106662057
166 1 6.07487347194041 10.12807945998794 4.049247289346853
167 1 6.074483202640073 8.102770134229667 6.073337981807082
168 1 4.049424474100178 10.126821085503128 6.072046627821706
169 1 8.099502458299233 8.10415209306853 4.050340420992388
170 1 10.125116016521517 10.130194128296168 4.053021931764783
171 1 10.12491887709008 8.10517100139461 6.076984635635977
172 1 8.100186435477093 10.128646083839937 6.075378000253502
173 1 12.148381878244345 8.106324032040014 4.0535781359640914
174 1 14.172791995687998 10.132101135566414 4.056405483047038
175 1 14.173226294162848 8.108190774620168 6.081271282725737
176 1 12.15100124628764 10.131523446067293 6.0810060639091565
177 1 -0.0009759200065636597 12.151550034730842 4.046613555200748
178 1 2.024718281308532 14.177223084705279 4.0472334652258315
179 1 2.0246811639451017 12.151474644250786 6.071011512868135
180 1 0.00030915210783332195 14.176746965558019 6.070347774297901
181 1 4.049855431276324 12.152365533677125 4.048109643292726
182 1 6.075826774590685 14.17786480869911 4.049899696933854
183 1 6.074838916697268 12.152571025059173 6.073523574311929
184 1 4.049740038072846 14.177214962519926 6.07205681604378
185 1 8.100867848126788 12.153813144190886 4.0516395280808135
186 1 10.126853568055449 14.178995796359914 4.055219192171161
187 1 10.126786579134862 12.1544223928612 6.079195022636746
188 1 8.101079394619724 14.178154670140254 6.076334294996162
189 1 12.150368302921203 12.155773938348153 4.056581254808483
190 1 14.174711192905562 14.17996888884564 4.060089141713027
191 1 14.176473688257047 12.157568516472073 6.0861138344274615
192 1 12.153590931069795 14.179998752862026 6.085815568808866
193 1 -0.0005663532993782934 16.202493573921984 4.0467460740870305
194 1 2.024788003602375 18.22776868255078 4.047366173870046
195 1 2.025041253086489 16.202490785371648 6.071125584170466
196 1 0.00014538444726875041 18.22801997418433 6.070588277440905
197 1 4.05039871874038 16.202572819666827 4.048382129066328
198 1 6.076376902296295 18.227123598083043 4.050313051253951
199 1 6.075432578311141 16.202562120523897 6.0739670903388605
200 1 4.0500953393157815 18.227673931914175 6.072357571039537
201 1 8.102116575158998 16.202647160345744 4.052854785290895
202 1 10.12773983885331 18.22580833929475 4.056044852863708
203 1 10.129224479791514 16.20280916244521 6.082521924718067
204 1 8.102915403668803 18.22639833746841 6.078085180706646
205 1 12.152022916262661 16.20251296009939 4.059049256176168
206 1 14.175246049978721 18.224554094245114 4.061307306057034
207 1 14.178981972647165 16.20246804339065 6.092871644337444
208 1 12.155984147265396 18.223694030237155 6.088780709466282
209 1 -0.0011617716807973682 20.253095811276392 4.046885523444818
210 1 2.024101268154199 22.277750093464476 4.0473410178749
211 1 2.0248238666474623 20.253150514592775 6.0713747791832455
212 1 -0.000966943799466064 22.278466115634814 6.0709068236153545
213 1 4.0502588499331145 20.252358906299726 4.048370843017054
214 1 6.075572869036535 22.27619796488757 4.049592499855203
215 1 6.075853403621526 20.251697397833794 6.074268004688231
216 1 4.050035746322992 22.277420037187667 6.072548766373859
217 1 8.101726798745416 20.250549177281545 4.052267998496121
218 1 10.126181550546377 22.27352373224259 4.053901440656486
219 1 10.128383503648154 20.248200700780327 6.081231920541422
220 1 8.10139774729184 22.274788151718788 6.076365338870433
221 1 12.151468311549792 20.2480773512979 4.058136488987623
222 1 14.173759342786477 22.27065501868943 4.058496523664129
223 1 14.177802077482808 20.243597756504307 6.091245882873599
224 1 12.152553318890648 22.270198010146135 6.083659116584863
225 1 -0.0023950349796402863 24.30283467648903 4.046906708378748
226 1 2.0230213876906324 26.32705635136278 4.047180606988007
227 1 2.0240362156236915 24.30281121868711 6.071560167385882
228 1 -0.0024096339914396196 26.327720903984826 6.071107340396507
229 1 4.049403999837298 24.301815768329117 4.048039581793097
230 1 6.074478983848211 26.32559194097878 4.0488288261146135
231 1 6.07537103837621 24.300956100664497 6.073940777500084
232 1 4.0493141788525735 26.326618078084 6.07243462909954
233 1 8.1003705618796 24.299646805521807 4.050736246261536
234 1 10.124374197635106 26.32329399531636 4.051553849549649
235 1 10.12618560120038 24.297617819294096 6.078128186559999
236 1 8.100280528562596 26.32429500528748 6.075218260067011
237 1 12.149503954496424 24.296716637497465 4.0546670874260995
238 1 14.171755082313393 26.320919954638647 4.054393771988215
239 1 14.174842223565204 24.2928197489509 6.084007078161665
240 1 12.149664927777584 26.3208762438029 6.079094009401898
241 1 -0.003581200823226389 28.351768782487778 4.046777961179448
242 1 2.0222158247772914 30.37594891787937 4.0469645584746825
243 1 2.0230451024191884 28.351710629013628 6.071534749633091
244 1 -0.0033808576517718697 30.376186347990423 6.07105158113641
245 1 4.048420490607414 28.351064984080733 4.047668205486604
246 1 6.07352646503826 30.375354381719205 4.048303896555127
247 1 6.0744399960671425 28.350359733239106 6.073364107650461
248 1 4.0485580119227285 30.37573733821272 6.072148166403495
249 1 8.099014732765333 28.349610348442845 4.049569793861504
250 1 10.12279449906137 30.374376409979163 4.050203273502852
251 1 10.12427898613883 28.348108053117457 6.076176172431132
252 1 8.099009165598101 30.374666295873766 6.074309934705243
253 1 12.147405720180675 28.347762001143366 4.051882343461894
254 1 14.169793943311802 30.373416451027488 4.051713022392821
255 1 14.171649312766995 28.345692763341013 6.078852195971041
256 1 12.147188941273429 30.373232968215625 6.076600986549172
257 1 -0.0028035693188377024 0.0027866259849239137 8.095534200366576
258 1 2.023286277756087 2.027070028193595 8.095857623674211
259 1 2.0238342795695345 0.002790040524216303 10.120707925210803
260 1 -0.0017960470312673445 2.0264604140189704 10.120215665213735
261 1 4.048959457955007 0.0028491951405967527 8.096683611751121
262 1 6.074247668162369 2.0278548510055723 8.097692012034003
263 1 6.07493529680367 0.002570134296186816 10.122420483069936
264 1 4.049435145762136 2.0272290771646957 10.121385997559475
265 1 8.099260096757593 0.002567558806200969 8.098955419812595
266 1 10.123544478466744 2.0286533997692593 8.100068372005111
267 1 10.124237437541472 0.0019089059747652186 10.124732911240129
268 1 8.099661402379683 2.0280895905669833 10.12353190637029
269 1 12.14727893835827 0.0020013113792485466 8.101076012497522
270 1 14.170676209766064 2.0289266921936564 8.101651995360136
271 1 14.171331393446001 0.0011433183298985385 10.126173661499854
272 1 12.1479685448331 2.028645534261964 10.125596094721633
273 1 -0.0019997226319670085 4.050844893318469 8.095254385142047
274 1 2.0239905651485413 6.0758489035068015 8.095691785973688
275 1 2.0241551280489523 4.050966602031591 10.120587944638626
276 1 -0.00028565323352997484 6.074503100372757 10.119858667401077
277 1 4.0490191455995 4.052029575969685 8.096642137273115
278 1 6.074357483355536 6.077500940019606 8.097735978001854
279 1 6.074608586017759 4.052485899040283 10.122454961367552
280 1 4.0493257100117095 6.076055079458395 10.121367139151154
281 1 8.099324969701568 4.0536555523825815 8.098990538485015
282 1 10.124640270896549 6.079987106745052 8.100891435122826
283 1 10.12444792131696 4.054493559934587 10.124944162000979
284 1 8.099580763511254 6.078110758006168 10.12375108205427
285 1 12.148104744969094 4.055485599169628 8.101635225426906
286 1 14.172953059265499 6.08274840592461 8.104269554819302
287 1 14.17218146976693 4.05568480447587 10.126947300437363
288 1 12.149863174835074 6.081439159854552 10.127074341637465
289 1 -0.0003444488640335105 8.099855755366315 8.094843176572223
290 1 2.0246744938968977 10.12555753772608 8.095359561115542
291 1 2.0247642154650904 8.099861068358223 10.120351229967332
292 1 0.0015908761055770928 10.124210323679494 10.119525380749364
293 1 4.049214619809592 8.101279797477815 8.096462646546195
294 1 6.073848769997332 10.126770065218663 8.097462948649952
295 1 6.073587803973711 8.101132861032216 10.122212422925402
296 1 4.048456000545248 10.125327985011316 10.12094855286359
297 1 8.09959857122186 8.103138425060667 8.099261925867756
298 1 10.1254731300909 10.128695693499232 8.101654946891577
299 1 10.124841079848391 8.103722223551811 10.125400811523267
300 1 8.09675103230012 10.125464292260286 10.122787574956973
301 1 12.150666775482174 8.106832536701592 8.10413625514842
302 1 14.177737340555641 10.13425763955932 8.10998372457741
303 1 14.176450057127475 8.108678158447047 10.131178529725466
304 1 12.152101718183243 10.129039026343731 10.128286085184351
305 1 0.0011017278887464931 12.150532971240743 8.094543263766443
306 1 2.0250320426158397 14.176646827647945 8.095238933089862
307 1 2.024999975884798 12.150391431330263 10.120097354273325
308 1 0.002662790524044386 14.176046040222417 10.119460486650114
309 1 4.048892251969343 12.151354060159388 8.096102969211893
310 1 6.072963567666981 14.1771336509526 8.09699570727438
311 1 6.070780636536862 12.150498307314828 10.121219450773113
312 1 4.047567399679651 14.176459665377491 10.120721015650725
313 1 8.09845311538937 12.152095305292784 8.09876406962847
314 1 10.125225025878546 14.177249279903386 8.102271321899831
315 1 10.119296928327678 12.148038281426112 10.122571087523358
316 1 8.092383486004035 14.175423584488454 10.120405692809593
317 1 12.153869588730506 12.153845969898208 8.107253397852475
318 1 14.182068610912927 14.181029844953947 8.118835785238694
319 1 14.184731265688466 12.154670976848376 10.135519598049193
320 1 12.145043970687967 14.170122064781316 10.12500163857141
321 1 0.0015129739664888758 16.20240882853697 8.094646841319847
322 1 2.0251554310641486 18.228174677822444 8.095471729544753
323 1 2.0251105903094135 16.2024464004906 10.120159047324872
324 1 0.0023918221977096018 18.22860176620272 10.119695447605615
325 1 4.048949987423686 16.202458369723153 8.096187449423049
326 1 6.073959936078001 18.227371165404353 8.097744371713617
327 1 6.070263307820127 16.20213500517721 10.121334326586748
328 1 4.048223948478543 18.22817754198725 10.121083571320728
329 1 8.099204513248534 16.202533538553105 8.099434241678523
330 1 10.132359111106934 18.224984922835866 8.10941818696639
331 1 10.118832802930156 16.201025856054454 10.12183203867306
332 1 8.09496281731547 18.22675895778536 10.122188760551998
333 1 12.15824897149105 16.20281734951795 8.116807278763703
334 1 14.18658155504028 18.218275962456847 8.130257958045949
335 1 14.187885506340685 16.196782345652764 10.161051266258934
336 1 12.170006513072616 18.220516594083243 10.152553850146399
337 1 0.0007107326087955265 20.253875410298075 8.095017791274444
338 1 2.024898641263911 22.278623865479336 8.095877777147196
339 1 2.025293245059134 20.25408012615605 10.1204773963351
340 1 0.0010056732871343644 22.279695477258173 10.120039210186656
341 1 4.0497063925276136 20.25307081679779 8.096696970676515
342 1 6.0754793848374495 22.27667142970214 8.09852416942721
343 1 6.0730632517222425 20.252797537458804 10.122369563693415
344 1 4.049769343069668 22.278457402411604 10.121639870796152
345 1 8.101023683461861 20.25025310476469 8.100541771439381
346 1 10.12740810212327 22.27236778311183 8.10356763594027
347 1 10.125389749509571 20.24771845273719 10.125654098420679
348 1 8.100643727778081 22.27527544474807 10.124863772361575
349 1 12.15598450076378 20.2429515858037 8.11302556810154
350 1 14.179902803134778 22.262947629088817 8.115692889733802
351 1 14.18112709824745 20.23240120620021 10.147735140141895
352 1 12.154047583638013 22.268569238809253 10.130485987942034
353 1 -0.0008089820112511285 24.303798774976798 8.095428881964464
354 1 2.0241335935029743 26.327693279234506 8.096149493574199
355 1 2.0250716861159557 24.303820552607142 10.120853022755474
356 1 -0.0007657589031935048 26.328716550893528 10.120334982319733
357 1 4.050040689863883 24.30243697445262 8.09709912441291
358 1 6.075441617154269 26.325644742837696 8.098449564430245
359 1 6.075804243669523 24.30142788358686 10.123321388487085
360 1 4.050307711168504 26.327107908203534 10.121918172640505
361 1 8.101279067397678 24.299387861919932 8.100545849277562
362 1 10.126244516581187 26.321855737821462 8.102299893066759
363 1 10.127724993824874 24.29613991704123 10.127849808613552
364 1 8.10173539090979 26.323505272074947 10.125081901826153
365 1 12.152758208150988 24.293925546954735 8.106196920587832
366 1 14.174874851144027 26.316417797877744 8.107258034639154
367 1 14.1800873219709 24.28443082258415 10.136434710174202
368 1 12.152698445102738 26.316440662070434 10.129921920829293
369 1 -0.0022722172446530487 28.352339965212796 8.095632104085933
370 1 2.02333319397679 30.376153644647015 8.096034081473723
371 1 2.02432978009901 28.35221970724642 10.12090750564216
372 1 -0.001969995223569213 30.376472279143023 10.120412899903142
373 1 4.049470142072784 28.351263702279148 8.096997145121872
374 1 6.074645707007176 30.375136580526355 8.097929109236683
375 1 6.075730896057147 28.35009107557162 10.123011057658747
376 1 4.049782656760243 30.375735701037446 10.121571112403744
377 1 8.100336235260786 28.348938379885688 8.099681931530288
378 1 10.124163546789037 30.373366876468303 8.100556018119631
379 1 10.126241803193686 28.346167284397044 10.126214841907414
380 1 8.100421393690896 30.37388070874078 10.12395242854432
381 1 12.149401305963474 28.34549421854144 8.103042731486617
382 1 14.171234136036311 30.37170693245385 8.102541064954684
383 1 14.173756888795705 28.342007696444615 10.129260886932222
384 1 12.148879406131817 30.371500998263116 10.12637244818696
385 1 -0.001412582007305302 0.002642447398312545 12.145403835870379
386 1 2.0244447007708843 2.02659275020919 12.145661881114497
387 1 2.024852380476752 0.0026192811039515893 14.170832435412306
388 1 -0.0006087756050590966 2.02597706074322 14.17068736789154
389 1 4.0500651519898625 0.0026043176475246464 12.146247731003145
390 1 6.075115733066458 2.0274164704847952 12.147101799380494
391 1 6.075756821571566 0.0021396294776960586 14.17174700837028
392 1 4.050164496118406 2.026788205303533 14.171296467656727
393 1 8.100379738803072 0.00195757393625308 12.1480640989799
394 1 10.12451091200067 2.0281490282653536 12.149018105410923
395 1 10.125159296892814 0.0011353837965192722 14.173100719633128
396 1 8.100257762700013 2.027546800984207 14.172531173792287
397 1 12.148643983105567 0.0009998220111819044 12.14981612188109
398 1 14.171980426363197 2.028234775959429 12.150306674961183
399 1 14.172510940636126 0.00013320533882696793 14.174021270222402
400 1 12.148739865427467 2.028001149854442 14.173837686690447
401 1 -0.0004311260221863849 4.049883006871938 12.145227377682208
402 1 2.024857070536864 6.074723613152888 12.145695713891078
403 1 2.024950797918147 4.050255433948168 14.171043556642221
404 1 0.0011118368138394075 6.07342576229513 14.170885625498194
405 1 4.049706557650073 4.051301607893017 12.146387895264047
406 1 6.074182760076737 6.07636007614819 12.147366644310855
407 1 6.074921044087021 4.051837197838201 14.172193224481202
408 1 4.049378732886759 6.075069595579053 14.171827453516796
409 1 8.0999078816962 4.053157655642609 12.148284839180986
410 1 10.124867160167849 6.079276600911723 12.1496951996754
411 1 10.124734043024144 4.053880193258917 14.17369111715011
412 1 8.099029267741992 6.077060336778027 14.173406154861363
413 1 12.148933549107513 4.055020053644282 12.150323527802243
414 1 14.174355896349775 6.081407935081102 12.1523606767726
415 1 14.173115364698349 4.054756698011812 14.174934470716082
416 1 12.149709254372018 6.080104236894418 14.175169038656897
417 1 0.001596908760543015 8.098385462478289 12.145115828627931
418 1 2.025111189738944 10.124253587784406 12.145672666273231
419 1 2.0252454922069516 8.098769483340343 14.171471925931316
420 1 0.003321756771312347 10.123018508678362 14.171334344858188
421 1 4.048694709133746 8.09977380678483 12.146410774574203
422 1 6.070401861853509 10.124112441472013 12.146964847339413
423 1 6.07206648304674 8.09950634284886 14.172876375875811
424 1 4.047314976393425 10.124047471899202 14.172331295527231
425 1 8.097522449141088 8.100808718210198 12.14827870606549
426 1 10.119329299276432 10.122751740562213 12.148119981411606
427 1 10.122180718899218 8.100981606092489 14.174755489554686
428 1 8.091836853713874 10.121555638507383 14.173926818377199
429 1 12.150920703966854 8.105102553592484 12.151441212226532
430 1 14.179642523640025 10.129802376083376 12.15529631077492
431 1 14.176397123948844 8.10486252009617 14.176677803888238
432 1 12.144116960591584 10.12220873368906 14.17528184731722
433 1 0.0033436390422150824 12.149323774049789 12.145149193897867
434 1 2.02501855832401 14.176044699354284 12.145719690367624
435 1 2.025171189333825 12.149549046514961 14.171905119675266
436 1 0.004610400882340411 14.17546817822766 14.171714531854885
437 1 4.0468717840530735 12.150039583653319 12.146243948915897
438 1 6.067276780328567 14.175198356234239 12.146458114666363
439 1 6.066768834840633 12.148329422501604 14.173194021376736
440 1 4.045704705832076 14.17584547994429 14.172675999352071
441 1 8.0889555607795 12.14621489442426 12.146282982138535
442 1 10.102665036474537 14.165861843229328 12.140703802151057
443 1 10.10591683381884 12.13683093861231 14.17278027998634
444 1 8.083486029793546 14.170460366082601 14.172630129623027
445 1 12.139293529354058 12.140713668506045 12.144077936065493
446 1 14.169757409782088 14.15753962038942 12.141456970454353
447 1 14.168430759931075 12.143012036991138 14.167010350133449
448 1 12.10246359267927 14.133473770451523 14.163477605797949
449 1 0.0037978842635161916 16.202362456132427 12.145287196837382
450 1 2.025251719415299 18.228691245281524 12.145845690695815
451 1 2.0251223379640098 16.202442397776384 14.172103092475083
452 1 0.004281941209320216 18.229094724340417 14.171676923980751
453 1 4.046538096833832 16.202316344133287 12.146411790333957
454 1 6.0691451606568885 18.22794911790145 12.147127423691456
455 1 6.066157376164084 16.201336125745016 14.173330114105074
456 1 4.0467666768637605 18.228459324451563 14.172686285174
457 1 8.087208137694686 16.199874255918253 12.145666668705722
458 1 10.10879342753318 18.22444419133081 12.141914595548597
459 1 10.099543066741921 16.189764482314047 14.168553556746463
460 1 8.088291143723605 18.225995371895515 14.173272512662948
461 1 12.118088072080438 16.18560020388611 12.132155792582132
462 1 14.205785345916617 18.197064642419825 12.221141625986542
463 1 14.016375109758288 16.120822222941218 14.145242783981361
464 1 12.101283610139681 18.220388639680202 14.150720097088453
465 1 0.0027940596330292295 20.254911384193118 12.145380993796122
466 1 2.0255753329433284 22.279692360423653 12.145971893439397
467 1 2.0256702961393023 20.25479101960496 14.171878272217876
468 1 0.0026208648098885712 22.280690222134332 14.171305237513884
469 1 4.048359075079807 20.25396872973086 12.146665375282533
470 1 6.073874618032251 22.277843029935298 12.147840743532317
471 1 6.070663010010985 20.253403337942043 14.173354434495455
472 1 4.049450213286369 22.27920561494621 14.172336876235844
473 1 8.094430226402384 20.252525572452427 12.147626177557527
474 1 10.126765427086035 22.272136397023548 12.151980548142244
475 1 10.112897591411507 20.25084122181583 14.1714918611312
476 1 8.098302680425373 22.27592874878586 14.174274792797677
477 1 12.145071158590575 20.244287925829084 12.1474525305213
478 1 14.181272545678983 22.250814253372475 12.161205967762466
479 1 14.194287106206383 20.176318174171826 14.173552597659013