# LAMMPS data file written by lammpsIO.jl

2047 atoms
1 atom types

0 32.3974677930295 xlo xhi
0 32.3974677930295 ylo yhi
0 32.3974677930295 zlo zhi

Atoms  # atomic

1 1 0.0033524226075651318 0.0029034859432447158 -0.012414916788046022
2 1 2.0281115348680387 2.02750233872323 -0.011591497779781442
3 1 2.0283201277600726 0.0032300184070533293 2.0132338791476947
4 1 0.0037094847276130574 2.027795240840033 2.013085789904077
5 1 4.052684678205647 0.003325112005249984 -0.011212431631770102
6 1 6.0782677196700785 2.0277517564063947 -0.00942775202401096
7 1 6.079025432424693 0.003290024162797962 2.0153030896996778
8 1 4.05374254130013 2.028192553320818 2.0142053569200677
9 1 8.103253943089769 0.0033449565799699515 -0.008275582809183928
10 1 10.129330204388655 2.0274904606304944 -0.005898380914090187
11 1 10.12999395013273 0.0033783174847296865 2.0187052127265983
12 1 8.104894641507071 2.028270578615639 2.017293082255484
13 1 12.153913761896893 0.003256971135853031 -0.005089056008212867
14 1 14.180343605801838 2.0272116422358675 -0.0033665875189877992
15 1 14.180012788809256 0.003026598767237909 2.0210385594674674
16 1 12.15564178624066 2.0280512221270386 2.0206261571623574
17 1 0.0036406095948154546 4.0519213809376105 -0.011229307884021334
18 1 2.0278945227661183 6.076990405353672 -0.009469355557321625
19 1 2.02856546665362 4.052968522771101 2.0141238426882215
20 1 0.0034732521186978276 6.077746731043288 2.0152947464462865
21 1 4.0530285586028505 4.052319411159197 -0.009750561182657703
22 1 6.0776033982575495 6.076575981245804 -0.006287226009713374
23 1 6.0792030289099745 4.053054182103975 2.0166836781997435
24 1 4.0536090816491335 6.078123594215522 2.0166432541376436
25 1 8.103657010200092 4.051749971749674 -0.006204195397347526
26 1 10.12877113657654 6.0755866999925505 -0.001517461360299074
27 1 10.130213649467526 4.052952193460975 2.0204966949106846
28 1 8.104169752072258 6.077679168682431 2.0204871908358717
29 1 12.15511777506279 4.051316272212567 -0.002353686105737094
30 1 14.180632135437301 6.07537559164647 0.0018935969090883547
31 1 14.180824840927555 4.052836888216501 2.023579809653322
32 1 12.154936725611751 6.077581487904222 2.0249160835366022
33 1 0.0030376799033294427 8.101729532813296 -0.00821863295857974
34 1 2.0268797507103384 10.127303324707897 -0.005850859671066924
35 1 2.0282189338597516 8.103246080452013 2.0172820968115697
36 1 0.002788299758635959 10.127808629496645 2.018600099738423
37 1 4.051841321036387 8.102005061032964 -0.00621731099301895
38 1 6.075766662705123 10.126380123609207 -0.001453387952480204
39 1 6.078298373882443 8.102881389894932 2.020532017452776
40 1 4.052745823289357 10.128388833616166 2.020575345123789
41 1 8.10193746603662 8.100386335833198 -0.0011391095466692408
42 1 10.126450272457351 10.124757720616685 0.004641272500563777
43 1 10.128931252564838 8.102512704253513 2.0256412755318696
44 1 8.103053513990726 10.12767094633358 2.0257121391770636
45 1 12.153737084978799 8.0996229706965 0.003846019644436214
46 1 14.178606820797526 10.124462955041308 0.00864356957552582
47 1 14.17913834353742 8.102641753192925 2.0295010161115403
48 1 12.1535109373222 10.127769529596348 2.030859000386322
49 1 0.002248606862132427 12.151843956806756 -0.00502467326732755
50 1 2.0259907330482845 14.177761313584538 -0.0032851199279677586
51 1 2.0272872826735506 12.153223046169947 2.020583862263377
52 1 0.0019656621575133916 14.177077626005703 2.0211104741728074
53 1 4.050584660974507 12.15258346841791 -0.002306715477407505
54 1 6.074858649698853 14.177121066009233 0.0017666927283206703
55 1 6.077391324133302 12.153139338534137 2.0249865806931995
56 1 4.052167897474566 14.17833109676677 2.0235539818721735
57 1 8.099897359333651 12.150724208591702 0.003933660701608409
58 1 10.124703284367957 14.175749510830524 0.00872431193587675
59 1 10.128003589220116 12.15264334593493 2.030839576513834
60 1 8.102407612087926 14.177716441842499 2.029422707534884
61 1 12.15135355220885 12.149865559642324 0.009706374432868774
62 1 14.176691533725013 14.175322229503097 0.012140141137815166
63 1 14.177751440959689 12.153298296393288 2.0347622807938084
64 1 12.152983582335793 14.17772202693887 2.034669126068127
65 1 0.001557519070257422 16.20193268829566 -0.0038598900133084775
66 1 2.025794465880768 18.22798180952981 -0.003445808930525576
67 1 2.0269250725734675 16.202576338988045 2.02204980358522
68 1 0.0015894477010134024 18.226185804103014 2.021106642205359
69 1 4.050275336058802 16.2030644493852 -0.0009479081648532714
70 1 6.075053748620748 18.227925868558366 0.0014617364547551148
71 1 6.077164782047601 16.202969249209488 2.0266665577826255
72 1 4.052108633712117 18.22773792119216 2.0234418671213934
73 1 8.099565961413962 16.20185637491474 0.005586179200017231
74 1 10.124939566081384 18.227202316987885 0.007990018235271458
75 1 10.12768978540986 16.202214825179095 2.032759597794047
76 1 8.102605183744027 18.227276814817397 2.0290417907476126
77 1 12.150131304412108 16.2013376583325 0.01141354877643024
78 1 14.176681623165958 18.22741341940479 0.01144048321211026
79 1 14.177699741675974 16.20219595818069 2.0364746944839913
80 1 12.153097532711792 18.226660884179413 2.0342365384866485
81 1 0.001469305713579173 20.25187401393943 -0.005382037658106248
82 1 2.0261811528243405 22.277702058704396 -0.006227167178902474
83 1 2.0268669444847767 20.251722898703104 2.020679706270191
84 1 0.001862612993375409 22.275436034103045 2.018658591829846
85 1 4.050562160103188 20.25331694373388 -0.00268575090846774
86 1 6.075785934892801 22.278343099573828 -0.0022230039146307855
87 1 6.077530496826029 20.25249728727728 2.024501177184023
88 1 4.0524387677829825 22.27700442281802 2.0205335309158547
89 1 8.100340274897183 20.252924682844498 0.0030387629718277055
90 1 10.126494358078315 22.278253680989028 0.0032696833696904196
91 1 10.12812012028661 20.251708156766238 2.0300329287378056
92 1 8.103047291788831 22.27693447301803 2.024968682739052
93 1 12.151480365874267 20.25300752284369 0.00831291276038999
94 1 14.178062120492067 22.278595675588495 0.006941104351063025
95 1 14.177766987194106 20.25096293037433 2.033921762175801
96 1 12.153162841694664 22.2762380796733 2.0297588644500193
97 1 0.001961818538886892 24.30158345823002 -0.008722204513114147
98 1 2.0270861134570155 26.3270555218749 -0.009912236104304958
99 1 2.027435068991193 24.301030089402015 2.0173628325978803
100 1 0.002573905770670711 26.325454981105388 2.015095154189652
101 1 4.05140163825955 24.30300370139035 -0.006734292481301642
102 1 6.0768432953508595 26.327773200188062 -0.0068999103266268935
103 1 6.077879991687985 24.301838409900046 2.0204046176836856
104 1 4.052857910562002 26.326364617473363 2.0168431459275586
105 1 8.101572975934895 24.303242752164625 -0.0022227771394796978
106 1 10.127245607150622 26.32794224087855 -0.0024674984463541687
107 1 10.128117707891155 24.30135102212473 2.0248002258194298
108 1 8.103165796363742 26.326450666798916 2.0204098338225873
109 1 12.152716508385442 24.303316409066696 0.0023753830462268067
110 1 14.178096639644817 26.32775670007334 0.000574274441453872
111 1 14.177877535334423 24.300848933743918 2.028396338585893
112 1 12.153052515320933 26.325928361281687 2.0241574429382054
113 1 0.0027918201442554756 28.351275733145016 -0.011621541946357665
114 1 2.0276697319096733 30.37606056132872 -0.011921010456798319
115 1 2.0277904664570814 28.350915081345146 2.014308697428468
116 1 0.0031067815513036333 30.375605659500454 2.013075471495382
117 1 4.052181104926268 28.351996801214455 -0.010209396407742025
118 1 6.0775305478413575 30.376433614588436 -0.009641386417482332
119 1 6.078293822562336 28.351204521373894 2.0169376165641495
120 1 4.0532461718691355 30.37597880319163 2.0144190312638703
121 1 8.10225368555435 28.352284036095956 -0.006693147934272355
122 1 10.127853495782045 30.37663621701971 -0.006090269308876112
123 1 10.128526899411314 28.35102904961976 2.0205069289466877
124 1 8.104085434369939 30.37596622551144 2.017513942521719
125 1 12.152567695759952 28.35228589804125 -0.0029867063393207603
126 1 14.178161780002768 30.37636298766872 -0.00368536710561885
127 1 14.178287153638843 28.350522167698927 2.023169620260431
128 1 12.15422928175815 30.375744677107026 2.0206078140233648
129 1 0.0035113884186471415 0.0029727593398704614 4.037156566745181
130 1 2.0288488923117765 2.028360552918295 4.037674743628948
131 1 2.028964735883669 0.002880944849937674 6.061314827060215
132 1 0.0031208675434797432 2.028598587522275 6.061169462146924
133 1 4.054401415512391 0.00319741474520911 4.038382685272373
134 1 6.080070842449334 2.028632529832152 4.039871358176177
135 1 6.080722710913954 0.0031443895236276708 6.06347311385861
136 1 4.05477501196962 2.0286706428961265 6.0621637161136555
137 1 8.105784084329851 0.0032878935046625826 4.041409598124589
138 1 10.131047745677177 2.0285774834286667 4.043711005471635
139 1 10.131680984149458 0.002794620738237685 6.06732431962207
140 1 8.106105551382065 2.028842148537178 6.065715081015041
141 1 12.156085268096732 0.0029986214966942477 4.044841683248567
142 1 14.18078033209157 2.028495341038698 4.046546609325797
143 1 14.180815663092329 0.0023434972587853043 6.070251722647225
144 1 12.155848500908494 2.0288856070467856 6.0696671791993815
145 1 0.0034137285351226875 4.05353286051975 4.038373551124334
146 1 2.028822018489749 6.078902190057308 4.039861360157089
147 1 2.029031810836861 4.0540525527617 6.062059668368494
148 1 0.0032130052034835613 6.079392690165075 6.063563954176113
149 1 4.054287048877315 4.053692712178623 4.039285519408642
150 1 6.079778047790161 6.079274178381319 4.042997526499615
151 1 6.08058291410959 4.054808714496776 6.065207200082903
152 1 4.054965448263679 6.0800212230513715 6.065143170887243
153 1 8.105337313497326 4.054128011430097 4.043205158365685
154 1 10.129795180601667 6.079381536603348 4.047613363801185
155 1 10.130518084035158 4.0549741735222575 6.069662619823991
156 1 8.105792386881125 6.080815147603724 6.0700402140600405
157 1 12.155362765628249 4.053988797081043 4.04699123858936
158 1 14.178687511878815 6.079903241947059 4.051226251420701
159 1 14.178767861250945 4.05543590057883 6.073024209765342
160 1 12.154326764133902 6.081794220982958 6.074966117852278
161 1 0.003162480493973043 8.103788203931266 4.041299347301098
162 1 2.028401113410408 10.129082321169008 4.043683263751484
163 1 2.0288763616193934 8.104652687467961 6.065776771799715
164 1 0.002589813873631972 10.12926345387835 6.067389790908165
165 1 4.054241591140107 8.104261380529152 4.0432389235185155
166 1 6.079345211687662 10.129449451822309 4.047648773138887
167 1 6.080658422301545 8.105841032764364 6.069975253334263
168 1 4.05466676823154 10.129987753497106 6.069493165169276
169 1 8.104771934314352 8.104732800612094 4.047977035702444
170 1 10.129508753877385 10.13012632703021 4.053836206971454
171 1 10.130500824222208 8.107002732302446 6.076274591829459
172 1 8.106108252088857 10.13153399644789 6.076197004761263
173 1 12.153761213355455 8.10512664214785 4.053002862894558
174 1 14.17697969173997 10.130819612242309 4.057960715280512
175 1 14.177492996935614 8.108694730444082 6.0811689016830135
176 1 12.154690033308219 10.132846324444914 6.083627112902597
177 1 0.0023477784478414076 12.153055481323502 4.0448265070685006
178 1 2.027866822458492 14.178001216288136 4.046472221198377
179 1 2.0284704522639694 12.153820229306092 6.069554131431849
180 1 0.0017929821805036156 14.177562033673496 6.0703590192694525
181 1 4.053697671044561 12.154017667497541 4.047003640821297
182 1 6.0792999729177675 14.17864807423032 4.051091967223242
183 1 6.080822221171461 12.155293980091612 6.0747630767056044
184 1 4.054674001806035 14.178500759569253 6.072887463760268
185 1 8.104729405202077 12.154563623953484 4.053037466552141
186 1 10.129721001567727 14.179148114768251 4.058258780932254
187 1 10.131121279596904 12.156594572018601 6.083482403255559
188 1 8.106651023240536 14.180035973861907 6.0809709146491295
189 1 12.153568311184344 12.155395630586584 4.059509005775697
190 1 14.17668835517308 14.179467851157348 4.063480288527272
191 1 14.17767015609788 12.156857861126968 6.08981309089417
192 1 12.154926955465513 14.179832022745728 6.090223197517427
193 1 0.0016562582004252865 16.20132950387346 4.0463639719498605
194 1 2.0276081937621138 18.226342959766672 4.046698915776899
195 1 2.0280050366538487 16.20169779286916 6.071336725832474
196 1 0.0013763996943219532 18.225215800436608 6.070652436316039
197 1 4.053679205383986 16.20275996157142 4.048860894359122
198 1 6.079513409410538 18.226946343358268 4.051126810156083
199 1 6.081494709114581 16.20272652718201 6.077372924717903
200 1 4.054771359681562 18.225742458399314 6.073189313943885
201 1 8.104970107332004 16.20288004538337 4.055013277855183
202 1 10.129713428967435 18.226641360496686 4.057777238774897
203 1 10.13156055753229 16.203001833975254 6.086862151374655
204 1 8.107011326612605 18.22590455708885 6.081296986309405
205 1 12.153572541349448 16.20292771033935 4.0619441996815455
206 1 14.176847561824781 18.226186590494347 4.063525062161277
207 1 14.17788031957553 16.201558633760516 6.093798658366211
208 1 12.155143249951463 18.224941653437394 6.090437640271634
209 1 0.001672305167791473 20.24977181029501 4.045136257612903
210 1 2.027703500147455 22.27498507877469 4.0440107618858
211 1 2.028016219021427 20.24945378840431 6.0700474832903675
212 1 0.0017825601752389992 22.27358286849228 6.067938307804169
213 1 4.0535053598732995 20.251084624723408 4.047177624050318
214 1 6.079196350041269 22.27552113974093 4.047775694367307
215 1 6.080939168088447 20.249655179194953 6.075201672595258
216 1 4.054334410043265 22.27374937304458 6.070351554433484
217 1 8.104753003638148 20.250889312671507 4.052790447357925
218 1 10.129654860944564 22.27486929446989 4.053470354651775
219 1 10.131467434451066 20.248787334966906 6.0836242354409755
220 1 8.106278487939893 22.273564775364413 6.076438551253634
221 1 12.15380301527296 20.250144963652783 4.05899131115113
222 1 14.177521533000087 22.273636304294822 4.0579060943420435
223 1 14.17785462172602 20.246828368386403 6.090843332904953
224 1 12.155401044154447 22.271548942357995 6.084050946244928
225 1 0.0022171466024782874 24.29926473452376 4.04168559259204
226 1 2.028070516878589 26.32486954656717 4.040541301662627
227 1 2.0281854109816893 24.298500671740555 6.066489362029509
228 1 0.0024498874279993118 26.323615028723758 6.064022655713189
229 1 4.053557437056185 24.300069300733874 4.04371320765995
230 1 6.079286782225067 26.32509212730832 4.043719363641415
231 1 6.080260057410585 24.298601306671387 6.0706103696463165
232 1 4.054494132362678 26.323666485036092 6.066200262660674
233 1 8.104523105791893 24.30004748666054 4.0480202812591575
234 1 10.129616433029888 26.324588885761976 4.047739996801997
235 1 10.13137600115807 24.29749871128795 6.076624541825087
236 1 8.106175516508706 26.32358245727086 6.070608398579585
237 1 12.15409220490228 24.299004715310964 4.05284536232009
238 1 14.17842583469696 26.32337191883465 4.051190988961673
239 1 14.178908751461444 24.295014466336397 6.082186242900139
240 1 12.155918786223033 26.32182924124137 6.075599485462785
241 1 0.002918922469059446 28.349828952043936 4.038372306544686
242 1 2.02852756341433 30.375422168979277 4.037951417928475
243 1 2.0287947269806046 28.349160273881388 6.063039479301874
244 1 0.0031345780106086514 30.3746472555844 6.061501352578432
245 1 4.0539012873426445 28.35022024715803 4.040303813405992
246 1 6.07979705141809 30.375514050917904 4.040536969166362
247 1 6.080673659465988 28.349256504601513 6.066057712043368
248 1 4.05487874315161 30.37488106698502 6.062878421385491
249 1 8.104889806677658 28.350163364699647 4.043615591141633
250 1 10.130560346051833 30.37511434475811 4.0438347439775315
251 1 10.13154762147863 28.348565541946577 6.07028038578711
252 1 8.106378371301618 30.37470993962439 6.06614887875968
253 1 12.154679205505456 28.349402799631772 4.047148635701831
254 1 14.17985520525561 30.374527876380956 4.0466535096665375
255 1 14.180037014189843 28.347022892843306 6.073671571065977
256 1 12.156249777797582 30.374039908517776 6.069805257066393
257 1 0.0028651828181163797 0.0027245099673015574 8.084356289258789
258 1 2.0289984666151186 2.028763000525501 8.084694479091603
259 1 2.028879645505818 0.002653566955598 10.107754415616983
260 1 0.002721038102514076 2.028678484116818 10.107572398898792
261 1 4.055176253790037 0.0028355511024163132 8.085517704252458
262 1 6.080802739138534 2.0287360928614326 8.087224107074686
263 1 6.080886994802005 0.0024876054085934056 10.110488216479174
264 1 4.054911282199074 2.028645264627561 10.10901502340597
265 1 8.106587026917648 0.0026167375814584374 8.088799109375948
266 1 10.130890704588142 2.02908097008561 8.091638767990563
267 1 10.131248529377876 0.0017417026166377837 10.114333202940944
268 1 8.105804188513325 2.0289065901415553 10.112796269750172
269 1 12.156215347969278 0.002025899311405823 8.092699143972322
270 1 14.178880697939288 2.028699458032758 8.094784544692342
271 1 14.179798197886766 0.0010655728643782219 10.117863882807784
272 1 12.15444964551598 2.028811662372979 10.116949268392569
273 1 0.0029989082412112764 4.054567339693905 8.085568695456892
274 1 2.0287978190853893 6.080003767843949 8.087160212476062
275 1 2.0286326571533078 4.054562325310576 10.108829052615324
276 1 0.0025103574339590397 6.080230293415091 10.110809884803215
277 1 4.0551460126761665 4.054841622851628 8.08656927981091
278 1 6.081163579889431 6.081293925209802 8.09132652694196
279 1 6.080705892482942 4.055288849706284 10.111998138763338
280 1 4.0548470689535545 6.080404771179412 10.111693104467914
281 1 8.10616918579845 4.055663264962088 8.091520038508818
282 1 10.131156290338172 6.08281268136547 8.097298040299012
283 1 10.1305828998448 4.056391343462208 10.117591555287584
284 1 8.10657050843912 6.082480218168483 10.118073763417833
285 1 12.154527104033061 4.05621266082416 8.095832473555674
286 1 14.177844298389447 6.084382720552049 8.101489285089817
287 1 14.177281398744585 4.057139885887527 10.120958772882732
288 1 12.15523166788202 6.084077235324214 10.124040095723577
289 1 0.002538605831337578 8.105126051606971 8.08914055400715
290 1 2.0286961129414256 10.129665420504155 8.091615921253572
291 1 2.0285011999222853 8.105054927394674 10.112859928335386
292 1 0.0013945298008051555 10.130524779052879 10.114895336183892
293 1 4.055245019870214 8.105750181493361 8.091151046270145
294 1 6.081406265672191 10.131628080404882 8.096732428646249
295 1 6.0812368826398 8.106902472355848 10.11763775248955
296 1 4.055085812026103 10.13015445172479 10.117206580429608
297 1 8.106745825816029 8.10758061663496 8.09756817205387
298 1 10.132072974374841 10.133924047917473 8.10635523168896
299 1 10.131637259160875 8.109220951954168 10.126102467638239
300 1 8.10657080611171 10.133250465245656 10.125839886119808
301 1 12.155622355749701 8.110170586106577 8.10519630808092
302 1 14.179787825026128 10.136297719563462 8.115367880704337
303 1 14.18026570093732 8.111747954703024 10.133589048657212
304 1 12.156276768572578 10.134962966801625 10.137066166765964
305 1 0.0016872179470294112 12.154291338333069 8.092975680738205
306 1 2.0281045456827433 14.177557053076999 8.094752474013106
307 1 2.0279465480075807 12.153637979038223 10.117211962418756
308 1 0.0004783298369509365 14.179127605667793 10.118032580860213
309 1 4.055132761629211 12.154541670022146 8.095575768001384
310 1 6.082129143698875 14.17962114413755 8.101627125361535
311 1 6.081365453921839 12.156120133586953 10.123936285044573
312 1 4.055146547032945 14.17773097401361 10.121219131722691
313 1 8.107436602315843 12.157147865161363 8.104707990996888
314 1 10.13328439616933 14.18119871094122 8.114670689788017
315 1 10.1312920046526 12.158987649383333 10.136645041841318
316 1 8.10850636445806 14.182033899402754 10.133682861741447
317 1 12.156593727786621 12.158547898022604 8.116844024699583
318 1 14.178704158490904 14.17821698060588 8.123923131872678
319 1 14.178680119505943 12.158906419133196 10.153764791106688
320 1 12.156454161596416 14.180909836916275 10.153657366081779
321 1 0.0009906911699582256 16.20191172144615 8.094916978214373
322 1 2.028117703189041 18.22478794397423 8.09506988855568
323 1 2.027916463877802 16.20082013021025 10.118994051912575
324 1 0.0002937294886262179 18.226020480108534 10.118252669999833
325 1 4.055385281975815 16.201531094019046 8.097889792897153
326 1 6.082767669811963 18.22524189696423 8.102498183904508
327 1 6.082579947660767 16.20240907200341 10.127864809817398
328 1 4.0553554767687015 18.224306866116777 10.121722442203197
329 1 8.109802025712694 16.20305123077542 8.11008641070726
330 1 10.133659282999766 18.223689249855436 8.114798352793118
331 1 10.139188173913096 16.202700960065826 10.149999331904048
332 1 8.111233013579094 18.224243862711315 10.13642843737979
333 1 12.156713909226804 16.200289088551354 8.120912082131811
334 1 14.179134185131064 18.219268955381025 8.124345334433096
335 1 14.171785283820268 16.19277454677702 10.159348611354913
336 1 12.154825899212424 18.21701070652285 10.151859003826589
337 1 0.0010459601343119115 20.249253104832473 8.093420764182651
338 1 2.0283060560744057 22.272870259122296 8.092361154578176
339 1 2.0281768131156777 20.248369876695634 10.117659998981624
340 1 0.0007414928458085246 22.273233104224587 10.115270647706016
341 1 4.055206167050635 20.248501843345355 8.09641266841589
342 1 6.0817058486895155 22.272550374110473 8.09786478659163
343 1 6.082688555131065 20.247738655651478 10.125258079187772
344 1 4.055233985373381 22.27229620642896 10.118378727264437
345 1 8.108465056724059 20.247709272174472 8.105984025339474
346 1 10.133161770899791 22.270299324445034 8.107395101102872
347 1 10.134336850542441 20.244243952556634 10.139945581452638
348 1 8.108612312205413 22.270668296795996 10.127607704884605
349 1 12.156912798596213 20.244114028346207 8.117169301807863
350 1 14.179669580530257 22.266151651341136 8.116527916749646
351 1 14.176317768247678 20.23743053329903 10.151076862835106
352 1 12.157248672898799 22.265133075124858 10.140329879863607
353 1 0.001777595949742399 24.297780985811706 8.089812651391556
354 1 2.028538189671763 26.3228466056449 8.088258420720072
355 1 2.02816702457559 24.297302574429914 10.113742090899013
356 1 0.001651252215228466 26.322314236176172 10.111539716477406
357 1 4.0548716562536 24.297427318675865 8.092214076655807
358 1 6.08124127058485 26.32275246765663 8.092093562118864
359 1 6.081999879000947 24.296615134557825 10.118938710467335
360 1 4.054953189810289 26.322497318966832 10.112857013472263
361 1 8.107539844335667 24.296640909209113 8.09850083372426
362 1 10.132870711796913 26.32108009138412 8.098188593405686
363 1 10.13373590189679 24.293665958959984 10.12817886994469
364 1 8.108120602867881 26.32121580693705 10.11913549978499
365 1 12.157174170348467 24.29323127895978 8.10690614894691
366 1 14.18032036384314 26.31764697428432 8.104196193460364
367 1 14.18065030100191 24.2870752026825 10.138785652267062
368 1 12.157953175452096 26.31726271340522 10.126873860311354
369 1 0.0026010147078581016 28.3482731803984 8.08616369427868
370 1 2.0291212222542843 30.374287904448398 8.085207958282226
371 1 2.028503920998478 28.348256559510368 10.109623857806755
372 1 0.0024073276983450163 30.373738746825595 10.108197961488235
373 1 4.055092189586362 28.348579844289556 8.087626231198099
374 1 6.081348836729845 30.374305000031658 8.087773047306236
375 1 6.081538256297852 28.34802279694271 10.112669380507096
376 1 4.055053317541118 30.374194268222176 10.109261599581274
377 1 8.107447056881709 28.347983497821318 8.092088375087753
378 1 10.132369847947809 30.373534430449556 8.091992428947094
379 1 10.133317995089802 28.346204499841697 10.118750977468192
380 1 8.107160863019876 30.373499397859888 10.113258024461459
381 1 12.157300017197251 28.346246701408372 8.096932273342714
382 1 14.181070925502999 30.3723040039546 8.095392599334305
383 1 14.181535560482452 28.342963296907282 10.12354872946319
384 1 12.157430841255694 30.371779312313034 10.117797328057751
385 1 0.0023443144822665606 0.002196116399839189 12.130390873027816
386 1 2.028356461262544 2.0284173314839 12.131194581750387
387 1 2.0279306142363693 0.0023754829730699115 14.154231679006939
388 1 0.0024076435258544855 2.027788526954866 14.154292177313138
389 1 4.054659392461508 0.002452117986652668 12.132297506558634
390 1 6.0800762766947924 2.0284395390022363 12.13412035456865
391 1 6.079392755722349 0.0022220424377282955 14.15784199438765
392 1 4.053506294443972 2.027974528410223 14.156044924830017
393 1 8.10576281066235 0.0018819114664778368 12.135855324820064
394 1 10.12982507705953 2.028379896702242 12.138331576986282
395 1 10.130013528972098 0.001032642933072534 14.161431872691002
396 1 8.104161446913945 2.0276135075950723 14.15983264240664
397 1 12.155401611048447 0.0007334235102223006 12.139700343905869
398 1 14.177012723727659 2.028541569310452 12.14171144907993
399 1 14.179057240093426 -0.00031352774964664383 14.164425084845705
400 1 12.15287119406699 2.027679860744543 14.163781039246466
401 1 0.0025358029518880005 4.054277561266944 12.132397748209641
402 1 2.0280598430410315 6.07966469444524 12.134008661787234
403 1 2.0276658774644596 4.0536043082401365 14.156074312783739
404 1 0.00204170065913353 6.07935990967618 14.158132138594272
405 1 4.054058883713275 4.05427878971425 12.1329505268261
406 1 6.080032495869286 6.080764990642415 12.137729988380961
407 1 6.078610070965064 4.0534890343074705 14.15839905589216
408 1 4.052752536678765 6.078893044526461 14.158421441995747
409 1 8.105241927247986 4.0551533097172605 12.138011272983213
410 1 10.130444012102787 6.0822086022761015 12.14528553399648
411 1 10.12872644134834 4.054144796078327 14.164580161329486
412 1 8.103263501862546 6.079325377426217 14.164856197161775
413 1 12.153824622504906 4.056343911357016 12.143418346235789
414 1 14.178357952602212 6.083675023817564 12.15086490460622
415 1 14.1765496070957 4.054982626590254 14.169401185606601
416 1 12.152851653474274 6.080280899851178 14.172904973124314
417 1 0.0014738934473006184 8.105660366348134 12.136452389905088
418 1 2.027382158358509 10.129163057815598 12.138826586958537
419 1 2.0267211306238386 8.103894702397891 14.160257140072066
420 1 -0.0001937122399006251 10.130857425685166 14.161684809859423
421 1 4.054083303823735 8.105016150410362 12.137882764382523
422 1 6.079946249359585 10.131172106126302 12.145110161515262
423 1 6.07780665921625 8.104266576454018 14.164937163401236
424 1 4.052562076709828 10.12841451714779 14.16502878149785
425 1 8.105082140126209 8.106963344783683 12.145498221500478
426 1 10.127182265477192 10.131822145956313 12.155473580578821
427 1 10.125372062777688 8.103419511424951 14.174865431285324
428 1 8.100131901740554 10.129715616683951 14.175330246103417
429 1 12.154493844722944 8.107662943376301 12.153926860355314
430 1 14.177729859269888 10.131803885584068 12.168688036365724
431 1 14.175742441592945 8.103687669677097 14.184526942300797
432 1 12.143915596183158 10.123102779143442 14.188094601328114
433 1 -0.0001569929323961753 12.1557447642728 12.14001662801981
434 1 2.0272566419675258 14.176901419967024 12.142197321451107
435 1 2.0262139020573926 12.152551274150076 14.164690373515661
436 1 -0.0014117610876060941 14.179909436336834 14.164331550406628
437 1 4.054129062623433 12.153546107183233 12.143685030832938
438 1 6.080410555708427 14.179900804836613 12.15139251409845
439 1 6.07749711981329 12.155081981070959 14.173372468415957
440 1 4.052101218601279 14.176703484822038 14.170046038339416
441 1 8.104186551302078 12.158206757207507 12.154655053383578
442 1 10.130243467357595 14.183026082968437 12.170271498746358
443 1 10.118797200368963 12.151424986969392 14.18936487968758
444 1 8.101772025022086 14.18254490878445 14.18526487406195
445 1 12.147793684902721 12.153006823023832 12.171445122190326
446 1 14.165332683201592 14.168298636163902 12.203917888725218
447 1 14.162728373617993 12.135363435274638 14.208860979726637
448 1 12.136130432253461 14.163320536131321 14.21451785961168
449 1 -0.000557592608013372 16.203183739967983 12.141830904789336
450 1 2.0275539943678185 18.224535595725325 12.14234567484733
451 1 2.0263130712045836 16.200479900792327 14.166628160749458
452 1 -0.0011604237680147684 18.22673351588613 14.16447796211913
453 1 4.054128013014557 16.200685839823066 12.146264980482771
454 1 6.081223109750952 18.225540008248952 12.152002286775227
455 1 6.077704676569735 16.20371511498375 14.177475730664524
456 1 4.052236516454999 18.224855281147637 14.170505986923493
457 1 8.10857175309222 16.204885398367068 12.162548590048178
458 1 10.139867618414673 18.220166414945428 12.177944566008447
459 1 10.131968914679693 16.202050386952624 14.207487780038447
460 1 8.106124327406508 18.22662023966407 14.186898751055207
461 1 12.169777040433786 16.19374366722199 12.209759602537188
462 1 14.1517036583094 18.208786286664232 12.184208256563506
463 1 14.191788180749393 16.16560966228403 14.295406419277887
464 1 12.164835519809102 18.21175955855156 14.232299247187166
465 1 -0.0003545686854494699 20.249745941233574 12.140258286703263
466 1 2.0275216995244842 22.273020198650524 12.139465784817206
467 1 2.026486185267995 20.249343493564115 14.164948846545776
468 1 -0.0010732310500050208 22.27382688687628 14.161985771374798
469 1 4.054552112790561 20.248427593338096 12.144495437928105
470 1 6.081831995236333 22.272073869944162 12.146784372990833
471 1 6.079227797926498 20.24953553710815 14.174372614281488
472 1 4.053238540086637 22.27370634444547 14.165961121608003
473 1 8.109739831874805 20.246791433545393 12.158281121276762
474 1 10.133303758356663 22.267690343200435 12.16099295705159
475 1 10.136315474789443 20.24167689686836 14.198037532774606
476 1 8.107745940545017 22.27040520981141 14.178338682194767
477 1 12.154224986762504 20.240358360375204 12.178886712572544
478 1 14.175360534792285 22.256593866163556 12.176700925579057
479 1 14.167395625599106 20.228764631720047 14.227865700470156
480 1 12.156029416650599 22.260260060272564 14.201106985782767