# LAMMPS data file written by lammpsIO.jl

2047 atoms
1 atom types

0 32.397467793029854 xlo xhi
0 32.397467793029854 ylo yhi
0 32.397467793029854 zlo zhi

Atoms  # atomic

1 1 4.891111399599538e-6 4.891111404226235e-6 4.89111140527751e-6
2 1 2.0249203251031305 2.024920325103131 4.897809934288123e-6
3 1 2.024920325103129 4.897809932297601e-6 2.0249203251031287
4 1 4.8978099304117895e-6 2.0249203251031305 2.024920325103129
5 1 4.04981598538964 4.90307003038823e-6 4.903070030080382e-6
6 1 6.07472660147114 2.024974252695683 4.919105593597643e-6
7 1 6.074726601471135 4.91910559362466e-6 2.0249742526956838
8 1 4.049845102968183 2.0249514089167198 2.0249514089167198
9 1 8.099581466541576 4.928480220152474e-6 4.928480220130193e-6
10 1 10.124437698628267 2.025041652601484 4.903227638915838e-6
11 1 10.124437698628261 4.9032276371112604e-6 2.025041652601485
12 1 8.09961880149382 2.025017528829878 2.0250175288298795
13 1 12.149225902469656 4.915571096339003e-6 4.915571099510781e-6
14 1 14.173999907506648 2.0250947251636724 4.884246437113242e-6
15 1 14.173999907506651 4.884246437421277e-6 2.025094725163673
16 1 12.14925287786824 2.0250913801197084 2.025091380119709
17 1 4.90307002942031e-6 4.04981598538964 4.903070032909972e-6
18 1 2.0249742526956838 6.074726601471135 4.919105594607159e-6
19 1 2.0249514089167198 4.049845102968183 2.0249514089167198
20 1 4.919105593706951e-6 6.07472660147114 2.024974252695685
21 1 4.049870027280254 4.049870027280254 4.917169062245191e-6
22 1 6.074843864172106 6.074843864172106 4.869204781558381e-6
23 1 6.074794110224259 4.049940591564303 2.025006569933213
24 1 4.049940591564304 6.074794110224259 2.025006569933214
25 1 8.099649886824752 4.049986522965643 4.878430953369559e-6
26 1 10.124542103437337 6.074987148874421 4.757778218846168e-6
27 1 10.124505923089094 4.050070220940052 2.025094911604578
28 1 8.09974620834085 6.074943360577404 2.0250986146561405
29 1 12.149271485032754 4.05009631789455 4.820472221810941e-6
30 1 14.174040954835839 6.075090897031452 4.641348529970163e-6
31 1 14.174031652069079 4.050180446674935 2.025177464339655
32 1 12.14934655525148 6.0751019930223045 2.0252155194390546
33 1 4.928480220951085e-6 8.099581466541576 4.928480219553304e-6
34 1 2.025041652601485 10.124437698628258 4.903227638867042e-6
35 1 2.0250175288298795 8.09961880149382 2.02501752882988
36 1 4.9032276379359495e-6 10.12443769862827 2.0250416526014847
37 1 4.049986522965642 8.099649886824752 4.878430952947423e-6
38 1 6.074987148874421 10.124542103437337 4.757778220337335e-6
39 1 6.074943360577404 8.09974620834085 2.02509861465614
40 1 4.050070220940054 10.124505923089094 2.0250949116045773
41 1 8.099792445389191 8.099792445389184 4.733556025602076e-6
42 1 10.124657924257969 10.124657924257965 4.549107034927146e-6
43 1 10.12464459775947 8.099908511765586 2.0252361700779393
44 1 8.099908511765586 10.12464459775947 2.0252361700779393
45 1 12.149358524451522 8.099916724953193 4.562438101856117e-6
46 1 14.174073615032311 10.124722848132112 4.394836137300714e-6
47 1 14.17408581065339 8.100036113362194 2.025347369965223
48 1 12.149437821504648 10.124764314987324 2.0253780744843386
49 1 4.9155710985551555e-6 12.149225902469656 4.915571096816055e-6
50 1 2.025094725163673 14.173999907506648 4.884246440015537e-6
51 1 2.025091380119707 12.14925287786824 2.0250913801197084
52 1 4.884246435093551e-6 14.173999907506646 2.0250947251636746
53 1 4.050096317894547 12.14927148503276 4.820472222211145e-6
54 1 6.0750908970314486 14.17404095483585 4.641348530252807e-6
55 1 6.0751019930223045 12.14934655525148 2.0252155194390515
56 1 4.050180446674934 14.174031652069072 2.025177464339656
57 1 8.099916724953193 12.149358524451522 4.562438101945455e-6
58 1 10.124722848132112 14.174073615032311 4.394836136788241e-6
59 1 10.124764314987324 12.149437821504648 2.025378074484337
60 1 8.100036113362197 14.1740858106534 2.02534736996522
61 1 12.149412605973243 12.149412605973243 4.343438859470407e-6
62 1 14.17409286380359 14.17409286380359 4.216187787386494e-6
63 1 14.174119303068771 12.14949351747296 2.025459753582302
64 1 12.14949351747296 14.174119303068776 2.0254597535823007
65 1 4.903070028832495e-6 4.903070029756762e-6 4.049815985389638
66 1 2.0249514089167207 2.0249514089167207 4.049845102968183
67 1 2.024974252695682 4.919105594719305e-6 6.07472660147114
68 1 4.919105593305891e-6 2.024974252695683 6.07472660147114
69 1 4.049870027280254 4.9171690607580675e-6 4.049870027280254
70 1 6.074794110224259 2.025006569933214 4.049940591564303
71 1 6.074843864172106 4.869204781583762e-6 6.074843864172106
72 1 4.049940591564304 2.0250065699332143 6.074794110224259
73 1 8.09964988682475 4.878430952816654e-6 4.049986522965642
74 1 10.124505923089094 2.0250949116045773 4.050070220940055
75 1 10.124542103437337 4.757778220709057e-6 6.074987148874421
76 1 8.09974620834085 2.02509861465614 6.074943360577408
77 1 12.149271485032756 4.8204722233859976e-6 4.050096317894547
78 1 14.174031652069072 2.0251774643396545 4.050180446674935
79 1 14.174040954835839 4.6413485320064605e-6 6.075090897031452
80 1 12.14934655525148 2.025215519439053 6.0751019930223045
81 1 4.9171690594734345e-6 4.049870027280254 4.049870027280251
82 1 2.0250065699332143 6.074794110224259 4.049940591564304
83 1 2.0250065699332134 4.049940591564304 6.074794110224259
84 1 4.869204781506364e-6 6.074843864172106 6.074843864172108
85 1 4.049925437367739 4.049925437367739 4.049925437367739
86 1 6.074922733437182 6.074922733437182 4.050054911314744
87 1 6.074922733437183 4.050054911314744 6.074922733437182
88 1 4.050054911314745 6.074922733437182 6.074922733437182
89 1 8.099732459545741 4.050058708705979 4.050058708705981
90 1 10.124661085069782 6.075143193010024 4.050278489931133
91 1 10.124661085069782 4.050278489931133 6.075143193010024
92 1 8.099939316817498 6.075161309991705 6.075161309991705
93 1 12.149351917645642 4.0502409489336 4.050240948933596
94 1 14.174120928316551 6.075362220918564 4.050505666820661
95 1 14.17412092831654 4.050505666820658 6.075362220918564
96 1 12.149554384273623 6.075510851361558 6.075510851361557
97 1 4.8784309531851975e-6 8.099649886824752 4.049986522965643
98 1 2.0250949116045787 10.124505923089094 4.050070220940056
99 1 2.0250986146561405 8.099746208340848 6.074943360577408
100 1 4.7577782208128736e-6 10.124542103437337 6.074987148874424
101 1 4.050058708705976 8.09973245954574 4.050058708705981
102 1 6.075143193010027 10.124661085069778 4.050278489931134
103 1 6.075161309991706 8.09993931681749 6.075161309991705
104 1 4.050278489931133 10.124661085069782 6.075143193010027
105 1 8.099929433634848 8.099929433634845 4.050287888946099
106 1 10.124877009608023 10.124877009608028 4.050618212829817
107 1 10.124955592144262 8.10029243140797 6.075567791368067
108 1 8.10029243140797 10.124955592144262 6.075567791368063
109 1 12.149517728541706 8.100184760338385 4.050593940680591
110 1 14.17420244094572 10.125077159076616 4.0508989837965625
111 1 14.174353702588599 8.100737385540835 6.07611184443972
112 1 12.149915419781603 10.125396842351261 6.076234662487918
113 1 4.820472223366059e-6 12.149271485032754 4.05009631789455
114 1 2.025177464339653 14.174031652069079 4.050180446674934
115 1 2.0252155194390524 12.149346555251485 6.075101993022302
116 1 4.641348532259799e-6 14.174040954835842 6.075090897031452
117 1 4.050240948933596 12.149351917645637 4.050240948933598
118 1 6.075362220918567 14.17412092831654 4.0505056668206585
119 1 6.075510851361557 12.149554384273623 6.075510851361557
120 1 4.0505056668206585 14.17412092831654 6.075362220918563
121 1 8.10018476033838 12.149517728541708 4.05059394068059
122 1 10.12507715907662 14.174202440945724 4.050898983796566
123 1 10.125396842351261 12.149915419781603 6.076234662487918
124 1 8.100737385540839 14.174353702588604 6.07611184443972
125 1 12.149662201758051 12.149662201758048 4.050931366958657
126 1 14.174254099945708 14.174254099945706 4.051082348240883
127 1 14.174468927880708 12.150212242199757 6.076834344780847
128 1 12.150212242199757 14.174468927880698 6.076834344780847
129 1 4.928480220659632e-6 4.928480221129974e-6 8.099581466541576
130 1 2.0250175288298795 2.0250175288298795 8.09961880149382
131 1 2.0250416526014847 4.903227636980009e-6 10.124437698628261
132 1 4.903227638447092e-6 2.025041652601484 10.124437698628261
133 1 4.049986522965642 4.878430952921527e-6 8.099649886824752
134 1 6.074943360577405 2.02509861465614 8.099746208340848
135 1 6.074987148874424 4.757778220899559e-6 10.124542103437337
136 1 4.050070220940056 2.0250949116045787 10.124505923089094
137 1 8.099792445389188 4.733556025079925e-6 8.099792445389184
138 1 10.12464459775947 2.0252361700779393 8.099908511765584
139 1 10.124657924257969 4.54910703228907e-6 10.124657924257969
140 1 8.099908511765586 2.025236170077939 10.12464459775947
141 1 12.149358524451513 4.5624381026643145e-6 8.0999167249532
142 1 14.174085810653397 2.0253473699652207 8.100036113362197
143 1 14.174073615032306 4.394836136143427e-6 10.12472284813211
144 1 12.149437821504648 2.0253780744843373 10.124764314987324
145 1 4.8784309530526834e-6 4.049986522965642 8.099649886824752
146 1 2.025098614656143 6.074943360577408 8.09974620834085
147 1 2.02509491160458 4.050070220940055 10.124505923089094
148 1 4.7577782216892156e-6 6.074987148874424 10.124542103437337
149 1 4.050058708705979 4.050058708705981 8.099732459545736
150 1 6.075161309991705 6.0751613099917074 8.099939316817498
151 1 6.075143193010024 4.050278489931134 10.124661085069782
152 1 4.050278489931133 6.075143193010027 10.124661085069782
153 1 8.099929433634848 4.050287888946098 8.099929433634848
154 1 10.124955592144262 6.075567791368063 8.10029243140797
155 1 10.124877009608023 4.050618212829819 10.124877009608023
156 1 8.10029243140797 6.075567791368063 10.124955592144266
157 1 12.149517728541706 4.050593940680591 8.10018476033838
158 1 14.174353702588597 6.07611184443972 8.100737385540835
159 1 14.174202440945724 4.0508989837965625 10.125077159076616
160 1 12.149915419781598 6.0762346624879155 10.125396842351268
161 1 4.733556025576763e-6 8.099792445389191 8.099792445389191
162 1 2.02523617007794 10.12464459775947 8.099908511765586
163 1 2.0252361700779407 8.099908511765586 10.12464459775947
164 1 4.5491070347006725e-6 10.124657924257969 10.124657924257965
165 1 4.050287888946101 8.099929433634848 8.099929433634848
166 1 6.075567791368063 10.124955592144262 8.100292431407969
167 1 6.07556779136806 8.10029243140797 10.124955592144262
168 1 4.050618212829819 10.124877009608028 10.124877009608028
169 1 8.10032566710982 8.100325667109821 8.100325667109821
170 1 10.125514026963687 10.125514026963687 8.100944189522751
171 1 10.125514026963687 8.100944189522751 10.125514026963687
172 1 8.100944189522751 10.125514026963687 10.125514026963687
173 1 12.150010070477334 8.100924345757774 8.100924345757772
174 1 14.175052160513568 10.126460375479155 8.102327809486772
175 1 14.175052160513568 8.102327809486772 10.126460375479157
176 1 12.15086656991149 10.126402984970435 10.126402984970435
177 1 4.562438101391231e-6 12.149358524451522 8.099916724953196
178 1 2.02534736996522 14.1740858106534 8.100036113362199
179 1 2.0253780744843386 12.149437821504643 10.124764314987324
180 1 4.394836135998047e-6 14.174073615032302 10.124722848132109
181 1 4.050593940680591 12.149517728541708 8.100184760338385
182 1 6.07611184443972 14.174353702588594 8.100737385540837
183 1 6.076234662487918 12.149915419781603 10.125396842351261
184 1 4.050898983796565 14.17420244094573 10.125077159076621
185 1 8.100924345757774 12.150010070477334 8.100924345757772
186 1 10.126460375479157 14.175052160513568 8.102327809486772
187 1 10.126402984970438 12.15086656991149 10.126402984970435
188 1 8.102327809486775 14.175052160513568 10.126460375479157
189 1 12.150796965814504 12.150796965814502 8.10247340566694
190 1 14.175177445343708 14.175177445343715 8.103781534628778
191 1 14.176770834344689 12.152167312414877 10.129632496591375
192 1 12.152167312414873 14.176770834344689 10.129632496591375
193 1 4.915571097171121e-6 4.915571095835158e-6 12.149225902469652
194 1 2.02509138011971 2.0250913801197084 12.14925287786824
195 1 2.0250947251636746 4.884246436838293e-6 14.173999907506644
196 1 4.884246438181808e-6 2.0250947251636737 14.173999907506648
197 1 4.05009631789455 4.820472223826072e-6 12.149271485032754
198 1 6.075101993022302 2.025215519439053 12.14934655525148
199 1 6.075090897031455 4.641348531106993e-6 14.17404095483585
200 1 4.050180446674936 2.025177464339655 14.174031652069072
201 1 8.099916724953196 4.5624381032814855e-6 12.149358524451522
202 1 10.124764314987324 2.0253780744843386 12.149437821504648
203 1 10.124722848132109 4.39483613635242e-6 14.174073615032311
204 1 8.100036113362194 2.025347369965221 14.174085810653397
205 1 12.149412605973243 4.3434388585620884e-6 12.149412605973241
206 1 14.174119303068771 2.0254597535823042 12.149493517472962
207 1 14.17409286380359 4.216187784889089e-6 14.17409286380359
208 1 12.14949351747296 2.0254597535823025 14.174119303068771
209 1 4.820472224238378e-6 4.050096317894549 12.149271485032754
210 1 2.025215519439054 6.0751019930223045 12.149346555251485
211 1 2.025177464339655 4.050180446674934 14.174031652069072
212 1 4.641348530806486e-6 6.075090897031455 14.174040954835846
213 1 4.0502409489336 4.0502409489336 12.149351917645637
214 1 6.075510851361561 6.075510851361561 12.149554384273623
215 1 6.075362220918563 4.050505666820661 14.17412092831654
216 1 4.050505666820661 6.075362220918567 14.174120928316551
217 1 8.100184760338385 4.05059394068059 12.149517728541706
218 1 10.125396842351268 6.076234662487918 12.149915419781603
219 1 10.125077159076616 4.0508989837965625 14.174202440945718
220 1 8.100737385540837 6.076111844439717 14.174353702588599
221 1 12.149662201758051 4.05093136695866 12.149662201758051
222 1 14.174468927880705 6.076834344780843 12.150212242199757
223 1 14.174254099945706 4.051082348240883 14.174254099945708
224 1 12.150212242199759 6.076834344780846 14.174468927880705
225 1 4.562438102173626e-6 8.099916724953196 12.149358524451522
226 1 2.0253780744843386 10.124764314987326 12.149437821504643
227 1 2.025347369965221 8.100036113362197 14.1740858106534
228 1 4.394836135545787e-6 10.124722848132107 14.174073615032306
229 1 4.050593940680591 8.100184760338385 12.149517728541708
230 1 6.076234662487918 10.125396842351261 12.149915419781603
231 1 6.076111844439721 8.100737385540837 14.174353702588599
232 1 4.050898983796565 10.125077159076616 14.174202440945724
233 1 8.100924345757774 8.100924345757774 12.150010070477334
234 1 10.126402984970435 10.126402984970435 12.15086656991149
235 1 10.126460375479157 8.102327809486772 14.175052160513568
236 1 8.102327809486772 10.126460375479157 14.175052160513568
237 1 12.150796965814504 8.10247340566694 12.150796965814502
238 1 14.176770834344689 10.129632496591377 12.152167312414882
239 1 14.175177445343708 8.103781534628778 14.175177445343708
240 1 12.152167312414873 10.129632496591375 14.17677083434469
241 1 4.343438859040978e-6 12.149412605973238 12.149412605973245
242 1 2.025459753582305 14.174119303068771 12.14949351747296
243 1 2.025459753582304 12.14949351747296 14.174119303068776
244 1 4.21618778591148e-6 14.17409286380359 14.17409286380359
245 1 4.050931366958658 12.149662201758051 12.149662201758051
246 1 6.076834344780847 14.174468927880696 12.150212242199757
247 1 6.076834344780847 12.150212242199757 14.174468927880698
248 1 4.051082348240886 14.174254099945708 14.174254099945706
249 1 8.10247340566694 12.150796965814502 12.150796965814502
250 1 10.129632496591375 14.17677083434469 12.152167312414877
251 1 10.129632496591375 12.152167312414877 14.176770834344689
252 1 8.103781534628778 14.175177445343708 14.175177445343712
253 1 12.15116755983708 12.15116755983708 12.15116755983708
254 1 14.176359469489768 14.176359469489768 12.156035006929045
255 1 14.176359469489768 12.156035006929045 14.176359469489768
256 1 12.156035006929045 14.176359469489764 14.176359469489768
257 1 4.911230642832092e-6 4.911230639777678e-6 16.198738589476513
258 1 2.0251280483012213 2.02512804830122 16.19873859116998
259 1 2.0250947268188066 4.884249641262062e-6 18.223477405243276
260 1 4.884249642808152e-6 2.0250947268188035 18.223477405243276
261 1 4.050150988768348 4.765554636696965e-6 16.198738592634466
262 1 6.075181797786104 2.0252792511285853 16.19873859875052
263 1 6.075090895132445 4.641351415119044e-6 18.22343637314282
264 1 4.050180446235784 2.025177464507164 18.22344567105518
265 1 8.09996291180087 4.5334094483406166e-6 16.19873860362387
266 1 10.124820477815428 2.02542681712185 16.198738568295514
267 1 10.124722835505535 4.394838433805425e-6 18.223403693614053
268 1 8.100036098051998 2.0253473610280515 18.223391490613498
269 1 12.149436823972357 4.306087284788247e-6 16.198738578157467
270 1 14.174129053955692 2.025486700921473 16.198738549087803
271 1 14.174092855535356 4.216189971595656e-6 18.223384403183122
272 1 12.14949350541267 2.0254597313079694 18.223357944847315
273 1 4.765554637822668e-6 4.050150988768353 16.198738592634474
274 1 2.025279251128585 6.075181797786105 16.198738598750516
275 1 2.025177464507164 4.0501804462357835 18.22344567105518
276 1 4.641351415181745e-6 6.07509089513245 18.22343637314282
277 1 4.050349704806669 4.050349704806666 16.198738597937755
278 1 6.075856365981877 6.075856365981883 16.198738536524495
279 1 6.075362204462329 4.050505652331691 18.22335635642952
280 1 4.050505652331688 6.075362204462329 18.223356356429516
281 1 8.10033544736924 4.050762300914657 16.198738546410404
282 1 10.125697774809018 6.076595729169566 16.198738474088643
283 1 10.125077140025548 4.050898955951136 18.223274744099804
284 1 8.100737366987707 6.076111819810925 18.223123442310342
285 1 12.149737396878043 4.051052461128422 16.198738508201952
286 1 14.174574653435982 6.077073125407963 16.198738393789483
287 1 14.174254083106554 4.051082317257153 18.223223002907577
288 1 12.150212236971047 6.076834329715706 18.22300805868582
289 1 4.5334094479374424e-6 8.099962911800864 16.198738603623877
290 1 2.025426817121852 10.124820477815428 16.198738568295518
291 1 2.0253473610280515 8.100036098051996 18.22339149061351
292 1 4.394838436754831e-6 10.12472283550553 18.223403693614053
293 1 4.0507623009146565 8.10033544736924 16.198738546410404
294 1 6.076595729169566 10.125697774809012 16.198738474088646
295 1 6.0761118198109285 8.100737366987707 18.223123442310342
296 1 4.050898955951136 10.125077140025551 18.223274744099804
297 1 8.10218206458688 8.10218206458688 16.19873846686656
298 1 10.131308863159017 10.131308863159017 16.198738305260296
299 1 10.126460378100006 8.102327811417087 18.22242474855573
300 1 8.102327811417084 10.126460378100006 18.22242474855573
301 1 12.151438932200087 8.103277598572223 16.19873832515432
302 1 14.177035440992713 10.13264002244717 16.198738192339473
303 1 14.17517746359754 8.103781499406436 18.222299210804742
304 1 12.152167324082486 10.12963248426048 18.220705681918254
305 1 4.306087285987891e-6 12.149436823972346 16.198738578157467
306 1 2.0254867009214705 14.174129053955697 16.198738549087803
307 1 2.0254597313079716 12.14949350541267 18.22335794484731
308 1 4.216189974312959e-6 14.174092855535356 18.223384403183122
309 1 4.051052461128418 12.149737396878043 16.19873850820195
310 1 6.077073125407962 14.174574653435982 16.198738393789483
311 1 6.076834329715706 12.150212236971043 18.223008058685817
312 1 4.051082317257153 14.174254083106552 18.223223002907577
313 1 8.10327759857222 12.151438932200087 16.19873832515432
314 1 10.13264002244717 14.177035440992713 16.198738192339476
315 1 10.12963248426048 12.152167324082484 18.220705681918254
316 1 8.10378149940644 14.17517746359754 18.222299210804742
317 1 12.169892182473031 12.169892182473031 16.19873815034108
318 1 14.21568918440771 14.21568918440771 16.198738012831214
319 1 14.176359490959152 12.156035006835392 18.221116754966037
320 1 12.156035006835392 14.176359490959152 18.221116754966044
321 1 4.915566756094435e-6 4.915566755535737e-6 20.248251336219244
322 1 2.025091380095195 2.025091380095197 20.24822435835369
323 1 2.0250416470466703 4.903231723271531e-6 22.27304045024656
324 1 4.903231722886596e-6 2.0250416470466717 22.27304045024656
325 1 4.050096316004586 4.820467957436094e-6 20.24820574846763
326 1 6.075101980042489 2.0252155127236375 20.248130689574317
327 1 6.074987134808032 4.757782177294833e-6 22.27293604828891
328 1 4.050070208625492 2.0250949038772363 22.272972228794384
329 1 8.099916710400944 4.562433455289286e-6 20.248118722941992
330 1 10.124764291215973 2.025378053056896 20.248039372710647
331 1 10.124657901885197 4.549110152302619e-6 22.27282021577145
332 1 8.099908489791217 2.025236158492096 22.27283353979151
333 1 12.149412583563851 4.3434342240211185e-6 20.248064605724174
334 1 14.174119294655883 2.0254597090871376 20.24798360776372
335 1 14.174073599594948 4.394840406856118e-6 22.27275525837466
336 1 12.149437799483376 2.0253780361964995 22.27271374444277
337 1 4.820467960832193e-6 4.050096316004587 20.24820574846763
338 1 2.0252155127236375 6.075101980042492 20.248130689574317
339 1 2.0250949038772363 4.050070208625492 22.272972228794384
340 1 4.757782176648006e-6 6.074987134808032 22.27293604828891
341 1 4.050240939063992 4.05024093906399 20.248125329781736
342 1 6.075510807808417 6.075510807808417 20.247922741118455
343 1 6.075143165405642 4.050278470186346 22.272817045487464
344 1 4.050278470186346 6.075143165405642 22.272817045487464
345 1 8.100184726478354 4.050593901532374 20.247959416020304
346 1 10.125396814844565 6.0762346266354506 20.247561491492707
347 1 10.124876970166513 4.050618157282997 22.272600953769995
348 1 8.100292387722538 6.075567733526917 22.27252229940236
349 1 12.149662175551255 4.050931308740119 20.247814804819352
350 1 14.17446890094223 6.076834280849739 20.247264516067002
351 1 14.174202434840552 4.050898926003868 22.272400688114075
352 1 12.149915376562069 6.076234600525293 22.272080849487985
353 1 4.562433456203853e-6 8.099916710400946 20.248118722942003
354 1 2.025378053056894 10.124764291215973 20.248039372710647
355 1 2.0252361584920955 8.099908489791217 22.27283353979151
356 1 4.5491101499111835e-6 10.124657901885197 22.272820215771436
357 1 4.050593901532377 8.100184726478354 20.247959416020308
358 1 6.0762346266354506 10.125396814844565 20.247561491492707
359 1 6.075567733526921 8.10029238772253 22.27252229940236
360 1 4.050618157282999 10.124876970166513 22.272600953769995
361 1 8.10092430793947 8.100924307939469 20.247466809638258
362 1 10.126402946189492 10.126402946189488 20.246609986241616
363 1 10.125513983079415 8.10094413802033 22.271963591327648
364 1 8.10094413802033 10.125513983079415 22.271963591327648
365 1 12.150796929887555 8.102473386039463 20.246679661424718
366 1 14.176770812257853 10.129632494576933 20.245309108570076
367 1 14.175052164868214 8.102327779816637 22.271017035995218
368 1 12.150866579404903 10.126402982553516 22.271074346694707
369 1 4.3434342227402005e-6 12.149412583563857 20.24806460572417
370 1 2.025459709087138 14.174119294655888 20.247983607763718
371 1 2.0253780361965035 12.149437799483389 22.272713744442747
372 1 4.3948404089427094e-6 14.17407359959495 22.27275525837466
373 1 4.050931308740122 12.149662175551255 20.247814804819352
374 1 6.076834280849739 14.17446890094223 20.247264516067013
375 1 6.0762346005252965 12.149915376562069 22.272080849487995
376 1 4.0508989260038675 14.17420243484054 22.272400688114075
377 1 8.102473386039469 12.150796929887555 20.246679661424718
378 1 10.129632494576933 14.176770812257853 20.245309108570076
379 1 10.126402982553516 12.150866579404903 22.271074346694707
380 1 8.102327779816633 14.17505216486821 22.271017035995225
381 1 12.151167567221757 12.151167567221757 20.246308827420496
382 1 14.176359462117215 14.176359462117208 20.241441112744152
383 1 14.176770650825198 12.152167162712415 22.267844358218028
384 1 12.152167162712425 14.1767706508252 22.267844358218028
385 1 4.928480832872489e-6 4.928480832339593e-6 24.297895944461757
386 1 2.0250175176202228 2.0250175176202223 24.297858606944434
387 1 2.024974238932908 4.919106916617936e-6 26.322751994099246
388 1 4.919106916178956e-6 2.0249742389329097 26.322751994099246
389 1 4.049986504515759 4.878431461415997e-6 24.297827519700228
390 1 6.074943335897353 2.0250986004133704 24.2977312145917
391 1 6.074843836749459 4.869205738199965e-6 26.322634742868175
392 1 4.04994056849958 2.025006555147516 26.322684493358675
393 1 8.099792420360526 4.7335565623667725e-6 24.29768497622137
394 1 10.124644571171853 2.0252361490984914 24.29756885856037
395 1 10.124542090384349 4.757779205246655e-6 26.322491466302242
396 1 8.09974618515303 2.0250985989784556 26.322535244950156
397 1 12.149358511517722 4.562437905757486e-6 24.297560675191395
398 1 14.174085797286356 2.0253473475857655 24.29744118249143
399 1 14.174040956482731 4.6413482451569945e-6 26.322387684981802
400 1 12.14934653917797 2.02521551765708 26.32237654307871
401 1 4.878431460166776e-6 4.049986504515758 24.297827519700228
402 1 2.025098600413372 6.074943335897353 24.2977312145917
403 1 2.025006555147516 4.04994056849958 26.322684493358675
404 1 4.869205737010351e-6 6.074843836749459 26.322634742868175
405 1 4.05005868588763 4.050058685887629 24.297744972332843
406 1 6.075161272182247 6.075161272182247 24.297537965930637
407 1 6.074922708747387 4.050054883882308 26.322555864733868
408 1 4.050054883882308 6.074922708747387 26.322555864733868
409 1 8.09992939906703 4.050287854227517 24.297547878362856
410 1 10.124955554938168 6.0755677255720375 24.297184552837503
411 1 10.124661067397723 4.050278476689264 26.322335249817588
412 1 8.099939282098529 6.0751612798271735 26.32231704798554
413 1 12.149517706130469 4.050593892433664 24.297292366392742
414 1 14.174353690452019 6.076111784257642 24.296739463232665
415 1 14.174120909621733 4.050505625085686 26.32211608454327
416 1 12.149554379918081 6.075510792528243 26.321967243166213
417 1 4.7335565622078564e-6 8.099792420360526 24.29768497622137
418 1 2.0252361490984923 10.124644571171853 24.29756885856035
419 1 2.025098598978455 8.09974618515303 26.322535244950156
420 1 4.757779205583941e-6 10.124542090384345 26.322491466302242
421 1 4.05028785422752 8.09992939906703 24.297547878362856
422 1 6.0755677255720375 10.124955554938168 24.29718455283751
423 1 6.0751612798271735 8.099939282098534 26.32231704798554
424 1 4.050278476689261 10.124661067397714 26.322335249817602
425 1 8.100325616112155 8.100325616112157 24.297151247163676
426 1 10.1255139940182 10.125513994018196 24.296532636565995
427 1 10.124955553298534 8.10029239226894 26.321910203718996
428 1 8.100292392268942 10.12495555329854 26.321910203718996
429 1 12.150010032003571 8.100924295607099 24.296552425320876
430 1 14.175052124378245 10.126460290880262 24.295148694692518
431 1 14.174353660595392 8.10073732700257 26.321365956374425
432 1 12.149915341131274 10.125396735134897 26.32124306394881
433 1 4.562437905776555e-6 12.149358511517722 24.297560675191395
434 1 2.0253473475857664 14.174085797286356 24.29744118249143
435 1 2.02521551765708 12.149346539177962 26.32237654307871
436 1 4.641348250174403e-6 14.174040956482731 26.322387684981802
437 1 4.050593892433664 12.149517706130464 24.297292366392746
438 1 6.076111784257642 14.174353690452019 24.296739463232647
439 1 6.075510792528249 12.149554379918081 26.321967243166213
440 1 4.050505625085686 14.174120909621731 26.322116084543254
441 1 8.100924295607102 12.150010032003571 24.296552425320883
442 1 10.126460290880262 14.175052124378238 24.295148694692518
443 1 10.125396735134897 12.149915341131274 26.32124306394881
444 1 8.100737327002568 14.174353660595385 26.321365956374425
445 1 12.1507968828288 12.1507968828288 24.295002971820473
446 1 14.175177358352395 14.175177358352395 24.293694678111336
447 1 14.174469102107645 12.15021225757311 26.320642898094526
448 1 12.15021225757311 14.174469102107642 26.320642898094526
449 1 4.90307015058986e-6 4.903070151394685e-6 28.347661584641134
450 1 2.024951392251434 2.0249513922514337 28.347632470102624
451 1 2.0249203143894103 4.897809757813187e-6 30.372558363674532
452 1 4.897809755926123e-6 2.0249203143894086 30.372558363674532
453 1 4.04987000192831 4.917169389931185e-6 28.347607547843975
454 1 6.074794090904288 2.025006558070307 28.347537011271825
455 1 6.074726589078246 4.919105648979262e-6 30.37250447701065
456 1 4.049845088592767 2.0249513995499275 30.372527306062313
457 1 8.099649872554638 4.87843139657337e-6 28.347491090981315
458 1 10.124505916036622 2.0250949119269395 28.347407354710434
459 1 10.124437697013152 4.903227643298937e-6 30.372437084165018
460 1 8.099618801252557 2.0250175301852367 30.37246119405777
461 1 12.149271484201194 4.8204728174242185e-6 28.347381281351336
462 1 14.174031646535793 2.0251774698278115 28.347297066952944
463 1 14.17399990897812 4.8842467445204635e-6 30.372383987643396
464 1 12.149252878972872 2.0250913901167293 30.372387304791328
465 1 4.917169389924058e-6 4.04987000192831 28.347607547843975
466 1 2.025006558070309 6.074794090904285 28.347537011271825
467 1 2.0249513995499275 4.049845088592765 30.372527306062313
468 1 4.919105651652021e-6 6.074726589078241 30.37250447701065
469 1 4.0499254172178984 4.049925417217898 28.347552165535205
470 1 6.0749227244099675 6.0749227244099675 28.34742259816644
471 1 6.074794108512359 4.049940590394224 30.372472134396645
472 1 4.0499405903942245 6.074794108512359 30.372472134396645
473 1 8.099732447786794 4.0500587048198655 28.347418820670132
474 1 10.124661040436854 6.075143138015593 28.34719872398421
475 1 10.124505915228665 4.05007021418556 30.372383693774804
476 1 8.09974618662812 6.074943350037672 30.372379934823332
477 1 12.149351904329967 4.0502409382056594 28.34723641891443
478 1 14.174120931622966 6.075362190237677 28.346971338951615
479 1 14.174031661022312 4.050180449741425 30.37230101169877
480 1 12.14934652740192 6.075101971389192 30.372262763236208
481 1 4.8784313985900105e-6 8.099649872554636 28.347491090981315