# LAMMPS data file written by lammpsIO.jl

2047 atoms
1 atom types

0 32.3974677930295 xlo xhi
0 32.3974677930295 ylo yhi
0 32.3974677930295 zlo zhi

Atoms  # atomic

1 1 0.0021985106493144896 0.002819836156395869 0.001831208215824122
2 1 2.0267794749273174 2.027467730604349 0.0018071462872040326
3 1 2.026666891675443 0.0028160790388276334 2.0274912075045535
4 1 0.0021944411186089834 2.027364432977573 2.0274212721238936
5 1 4.051599458998601 0.0025632830232440946 0.0018394494238437263
6 1 6.076194487744933 2.026641637331241 0.0017292504400320896
7 1 6.075960306650298 0.0022660017943045116 2.027598298304867
8 1 4.051065419168825 2.0269356354496915 2.027484198208032
9 1 8.101257429050419 0.0017960604182193781 0.001791178119369552
10 1 10.126003758646311 2.0254058319225 0.0015292935787101845
11 1 10.125810718781292 0.0013922717243924241 2.0276730606575466
12 1 8.100553154347342 2.0256679282804906 2.027492239682498
13 1 12.151209220519075 0.0010100212365532378 0.0017325306110450066
14 1 14.17617418201404 2.0245125072761447 0.0013673232223022703
15 1 14.176221697911902 0.0007166621798773977 2.02768751930559
16 1 12.150762146321675 2.024362160986037 2.027405434910144
17 1 0.0020991666032521288 4.052427769443032 0.0017378203067374928
18 1 2.0261863604931074 6.077287773194024 0.001637021566318775
19 1 2.0262964918656636 4.051942961300339 2.027418298255836
20 1 0.0019149397432061638 6.076982904911928 2.027456891894028
21 1 4.0510688761598015 4.051862633593352 0.0016397132584726386
22 1 6.07507760936223 6.075825399085335 0.0010568457806867083
23 1 6.075139696734315 4.05058943225876 2.0272342374040666
24 1 4.0499797906251835 6.076087566711165 2.02717565994668
25 1 8.100526172325674 4.050333313769918 0.0012254335556745077
26 1 10.124653370568714 6.073670286236779 0.00019079925035778137
27 1 10.124878483230972 4.048605951540617 2.026802752530668
28 1 8.098908835330136 6.073724366087049 2.0263145657759067
29 1 12.150534035992099 4.048752381919505 0.0007609618684436114
30 1 14.175105587335576 6.072081129985009 -0.00038479992931463107
31 1 14.175595427681273 4.047161845178659 2.026416591850896
32 1 12.149162921425258 6.071328613432679 2.0253108362807275
33 1 0.0016928690412079733 8.10254669022134 0.0016446345052950498
34 1 2.0254050735094444 10.127512359979034 0.0014035744039940913
35 1 2.0253945407677043 8.101800861227082 2.0273628426507546
36 1 0.001439922297857118 10.127235548826823 2.027528595053301
37 1 4.049978207252696 8.101680946741608 0.0011477257762235803
38 1 6.073557379187361 10.125592151053809 0.00014138908511726855
39 1 6.0733231353516315 8.099674230185299 2.026265167886484
40 1 4.048513363932599 10.126047550321701 2.0266869697476015
41 1 8.098865062418403 8.099351965800492 -5.527838908352395e-5
42 1 10.122745207693496 10.122785029366588 -0.0014544590043089492
43 1 10.122629191250876 8.096599945536179 2.024535014991406
44 1 8.096599081549833 10.122957555776628 2.0244958759084515
45 1 12.148881547071477 8.096954276493609 -0.0011580664093442483
46 1 14.173499937247641 10.120651174936839 -0.002427264337041574
47 1 14.173803829824818 8.094385894612977 2.023290654481396
48 1 12.14679699012948 10.11981601551274 2.022210830433084
49 1 0.0012949331160246145 12.152879204654877 0.001592312151115236
50 1 2.0248949915401706 14.177874521115031 0.0012805659804014833
51 1 2.024523820659803 12.152275212490395 2.027284503520971
52 1 0.0010684288315481116 14.177877213413126 2.0276011558282545
53 1 4.0489403167066484 12.15192271011802 0.000676841640100328
54 1 6.072507773332445 14.176063166972058 -0.00039631611650981635
55 1 6.071536233803991 12.149925353751899 2.0252211656424355
56 1 4.047500414768635 14.176819584630564 2.0263319275727576
57 1 8.097201892563541 12.149332293551552 -0.0011645401921321842
58 1 10.121280418042677 14.173340592542335 -0.0023873350023955434
59 1 10.1203182595228 12.146538821864281 2.0221778297225366
60 1 8.094958120641667 14.173960046628606 2.02322125406387
61 1 12.14708400925365 12.146594798213613 -0.0027462712922209395
62 1 14.17221628037641 14.171333202065684 -0.003445559667722404
63 1 14.171800213420475 12.14400821396842 2.0198307217510987
64 1 12.144929941537788 14.171022831858306 2.0197831350508277
65 1 0.001129595889499135 16.203147075730705 0.0016559264528136614
66 1 2.024911511273025 18.228096281327566 0.0013471627794589595
67 1 2.024148665649947 16.203061614703973 2.0272990782145763
68 1 0.0009932640719854308 18.228421625949803 2.0277297193526795
69 1 4.048534496092038 16.202416309174744 0.0005569370372764246
70 1 6.072482925552282 18.226829393724504 -0.0002845818710597696
71 1 6.070809927185441 16.20127430598107 2.0248498789943374
72 1 4.047513176521548 18.22787533784707 2.026416110228273
73 1 8.096443772047243 16.200280762897766 -0.0014666094853469619
74 1 10.121130252985237 18.224950346277364 -0.002108220036590651
75 1 10.11918515325635 16.198661789593817 2.0211131965835603
76 1 8.094858311240252 18.22605841134279 2.023250490270933
77 1 12.146198354230387 16.198082262762004 -0.0030640940877114478
78 1 14.17198351097744 18.22368431016622 -0.0029691285683774065
79 1 14.170749813177837 16.19678984247821 2.0182605866570964
80 1 12.144607167471584 18.22430502814959 2.0197339468614124
81 1 0.0012600393837661368 20.253050874738967 0.001775556191160267
82 1 2.0254717459421903 22.27778954943619 0.0015340336343830476
83 1 2.024501501649023 20.253492551190305 2.0274576721883673
84 1 0.0012507720986304647 22.278301035566667 2.0278094533030147
85 1 4.048991785793985 20.25267506689323 0.0007969614803627368
86 1 6.073606326250656 22.277152991781765 0.0003470939146176814
87 1 6.071524690725879 20.25265488642475 2.02534041512541
88 1 4.048575365992722 22.278243326395827 2.026848013038574
89 1 8.097069429958305 20.25138245600417 -0.0008575060703198561
90 1 10.122399361610155 22.27621270904627 -0.0009030891194686733
91 1 10.119936070175598 20.2513552671447 2.0221708519164228
92 1 8.096434815075973 22.277579806845477 2.0245922398768323
93 1 12.146664511771176 20.25018132104384 -0.0020842745265971362
94 1 14.172754581435454 22.27568869749023 -0.001416180269389595
95 1 14.171164177643124 20.25063864591802 2.0197240544925026
96 1 12.146096948773746 22.27699947144311 2.0221485021715027
97 1 0.00160506017994546 24.30236372129434 0.0018745010625155361
98 1 2.0262648736929676 26.32683970141288 0.001724848929610179
99 1 2.0253805122318522 24.30299056691303 2.027590321129062
100 1 0.0016778909577910258 26.327309384499806 2.0277393541869535
101 1 4.050143213501116 24.302234837092737 0.001240106571982909
102 1 6.075247439120559 26.326559348632234 0.0011574154736282202
103 1 6.0733930452747265 24.30285070371741 2.026367793379127
104 1 4.050103346459876 26.32741518765833 2.0273068629517166
105 1 8.098824229799055 24.301650914921176 0.000266226429390943
106 1 10.124470069384 26.326131363957362 0.0006010530012902066
107 1 10.122246693044213 24.30253631049339 2.024573912601938
108 1 8.098887642681168 26.327306238160908 2.026342820056824
109 1 12.14829685539661 24.301151855752888 -0.00040425917515420003
110 1 14.174438739613219 26.325899773261497 0.00042494985961362793
111 1 14.172919784427968 24.302421747412968 2.023198910767503
112 1 12.148658141089504 26.327191421129317 2.025310144197333
113 1 0.0019771727731410947 28.351252250266157 0.0018918686410113318
114 1 2.0268077420933692 30.375693549886048 0.0018357737189169897
115 1 2.0262729614945316 28.351673636453675 2.0275847224540358
116 1 0.002052243693952979 30.375911200939427 2.0275464985849267
117 1 4.051244753342167 28.35114964203388 0.001656617052345649
118 1 6.076301949221294 30.37532832851074 0.001734459630379657
119 1 6.075270550027443 28.351616741747105 2.027268644227068
120 1 4.051134971628745 30.37586791933806 2.027536876939212
121 1 8.100609264813862 28.35076800382479 0.0013480589188830706
122 1 10.125995776220407 30.374767297420117 0.0016440066081290427
123 1 10.124763924169878 28.351413208674796 2.0267880679220784
124 1 8.100596585925649 30.375472065859068 2.0274860721064947
125 1 12.150297768636321 28.35040968367146 0.001171105068857601
126 1 14.175997568770802 30.374378257579096 0.001640887021044988
127 1 14.175129637474905 28.351234353378832 2.0264285753730524
128 1 12.150643067845392 30.375017355831567 2.027393985347704
129 1 0.002036424680127045 0.002681090226866683 4.053378463320475
130 1 2.0263336648336625 2.0270098319528644 4.053379934722044
131 1 2.026154761820566 0.0023868052316713684 6.079489362089015
132 1 0.0017955920024379424 2.02679426837055 6.079446716500207
133 1 4.050902805684921 0.0024824330723640067 4.053522795679557
134 1 6.07532630250431 2.0260202198203046 4.053578555854163
135 1 6.075264294987888 0.0018037487964889427 6.079895624708354
136 1 4.050507896448642 2.026307179953146 6.079645106848102
137 1 8.100384239838409 0.0016752925646355038 4.053792647840017
138 1 10.12518965211915 2.0244957387998768 4.053642159219528
139 1 10.125073543955246 0.0007568395063103716 6.080221932939429
140 1 8.099901644181056 2.0248950895417703 6.079941150708943
141 1 12.15061947340598 0.0007512981721621408 4.05390572634096
142 1 14.175914665369596 2.0233450062497242 4.053562086899093
143 1 14.175623147903226 -0.00011060318975550594 6.080244640202917
144 1 12.150201244362458 2.0233444821132758 6.079910690907261
145 1 0.001955994422801831 4.051678769294646 4.053419451985838
146 1 2.025583413110204 6.076224932282705 4.053475305197651
147 1 2.0258095550513486 4.051136021767925 6.079600527854376
148 1 0.0014499788054037769 6.075973373031762 6.079795133346138
149 1 4.050256734099235 4.050942382790622 4.053388957418657
150 1 6.073727982616448 6.074238701215175 4.052803237713111
151 1 6.074484211663935 4.049622547340836 6.079538194473889
152 1 4.049344422490589 6.074937978211841 6.079494135118825
153 1 8.099397975184306 4.048940934070807 4.05309607748767
154 1 10.123253042319025 6.071444072038352 4.051491430394012
155 1 10.124217840125525 4.0474340763389725 6.078974253717011
156 1 8.098102207367472 6.072351180092993 6.078212462399691
157 1 12.149781193642394 4.046936708791913 4.052551602099617
158 1 14.174501904600373 6.069533669974741 4.050363895295656
159 1 14.175151967302652 4.045919323168833 6.078295514829799
160 1 12.148503002517419 6.069976963142798 6.076411311563134
161 1 0.0015020198643416977 8.101402528854317 4.053654077562135
162 1 2.0244899241141403 10.126252995678616 4.05351551307397
163 1 2.0247918331807666 8.100518618827733 6.079838807254197
164 1 0.0008178110810811841 10.125785348149433 6.0801137382602155
165 1 4.048693163473745 8.100190161172678 4.053001939675903
166 1 6.071535842604814 10.123651074771015 4.051394613739884
167 1 6.0724658623743855 8.098143137016033 6.0781639293155845
168 1 4.047653388801982 10.12449754936857 6.07886066120486
169 1 8.096970295590348 8.097080363430466 4.0510053119350244
170 1 10.120528435896356 10.120134037529846 4.0479032872756235
171 1 10.121823126249481 8.095169157015842 6.075100247846961
172 1 8.09572053374094 10.121349223937784 6.075016512675568
173 1 12.147368659019753 8.094146580785395 4.0486504895292175
174 1 14.172159203646322 10.117671891529891 4.0449730499856935
175 1 14.173209752980865 8.093171456196949 6.072295328497994
176 1 12.14610637953694 10.118667089642672 6.070151465602296
177 1 0.0009617816502427464 12.15184092031436 4.053798081960807
178 1 2.0236673152759477 14.177049716032851 4.053471520754404
179 1 2.0236408288752252 12.150756512539832 6.07979578753355
180 1 0.0002448495151344476 14.176325481362518 6.080192833866849
181 1 4.047163998089701 12.150550732348112 4.05242403699509
182 1 6.070009614263023 14.174733373327063 4.050196796803807
183 1 6.070512886310274 12.14827232152977 6.076221553886475
184 1 4.046393908753374 14.175307905174428 6.078105550295107
185 1 8.094648574248556 12.14722096248084 4.048523228417993
186 1 10.118480382089277 14.171559368134716 4.044790058056777
187 1 10.119475763895165 12.145307286049862 6.070018670331275
188 1 8.093865770581697 14.17257693418364 6.0719674805911215
189 1 12.144827256547474 12.144045938932464 4.043865756505877
190 1 14.170357371125075 14.169419753430656 4.039866512567563
191 1 14.171452742056504 12.143500478116675 6.064095364774781
192 1 12.144297084597238 14.170627485183275 6.063940149243048
193 1 0.0006523288782965476 16.20270173671058 4.0539023362996
194 1 2.023608683104801 18.228049649556812 4.0535694961780875
195 1 2.023098084423912 16.201699465617097 6.079737771122406
196 1 0.0001471007132150631 18.227207349772144 6.080290746458096
197 1 4.046493689939711 16.20186841326511 4.052136623681499
198 1 6.069939542790958 18.226754234367252 4.050183021370628
199 1 6.069603657127515 16.19996193769036 6.075107773188392
200 1 4.0462930714739285 18.226758239528873 6.078084313691399
201 1 8.093544990414632 16.1994052176426 4.047266947097418
202 1 10.118148825832453 18.224991027919838 4.0444547789233285
203 1 10.118251992924698 16.19814797920365 6.06692358875783
204 1 8.093751984926817 18.225259547696755 6.071677017985131
205 1 12.143505174029857 16.19723621119646 4.041154137993042
206 1 14.169953035209085 18.22411653953576 4.039035462350097
207 1 14.170568789703742 16.1971614274095 6.058689371539387
208 1 12.14394732031317 18.224608351540933 6.062660998954824
209 1 0.0007629718963806712 20.25327240366356 4.054034112102898
210 1 2.0243687135580446 22.278333445130286 4.053773609352194
211 1 2.0234655400633432 20.252563452974407 6.079935848182687
212 1 0.0005551608725402132 22.277577671041964 6.080374966752778
213 1 4.047116280706455 20.253086003731767 4.052532305596742
214 1 6.071404100743923 22.27807879151188 4.051379941292056
215 1 6.070204353561866 20.25189945397529 6.075946594128769
216 1 4.047425252812247 22.277618468094843 6.078892887219804
217 1 8.094301389627686 20.2520368113886 4.048265682513746
218 1 10.119793753361888 22.277694541738473 4.047224865649513
219 1 10.118778894764713 20.251255261529057 6.068795663931464
220 1 8.095015472579007 22.2772933865873 6.074265943971819
221 1 12.144063061666351 20.251393786421623 4.042863877482472
222 1 14.17116494696028 22.277805979329386 4.043415571593977
223 1 14.170767947172303 20.251512487151427 6.061387476879946
224 1 12.145034009576168 22.27737902097055 6.067990042530876
225 1 0.0012091709943106627 24.302905592735197 4.053993786832523
226 1 2.0254527316542714 26.32747004242232 4.0537436538236395
227 1 2.024547184223548 24.30248524443424 6.080089403781982
228 1 0.001166859200314525 26.32692383288587 6.080093346160054
229 1 4.048649253441409 24.303096471747136 4.053162440728269
230 1 6.073658707368786 26.327622701080028 4.052791719142939
231 1 6.072106284671204 24.30254186278593 6.0779631932885145
232 1 4.049130560676689 26.32711022037764 6.079588855987022
233 1 8.096606678619677 24.303053183143444 4.050747624729076
234 1 10.122689965306002 26.327703184007824 4.051036187502032
235 1 10.120758861178505 24.30265052310768 6.07380354005271
236 1 8.097507860195241 26.32720482876144 6.07773640027856
237 1 12.146366373286593 24.30316394610789 4.047660542290775
238 1 14.17352019451813 26.327784368605545 4.049434122381822
239 1 14.172157771116947 24.30295623408449 6.069800524864522
240 1 12.147341902164985 26.327307147929677 6.07498401610646
241 1 0.0017005103090308605 28.351637713415776 4.05367301710256
242 1 2.0262688463903764 30.37592236272479 4.053510261375863
243 1 2.0256283483501067 28.3513784266324 6.079801922350416
244 1 0.0016613186236063083 30.375575133529882 6.079583876081933
245 1 4.0502382503776895 28.351786445186782 4.053512076371899
246 1 6.075321675432848 30.37573459597351 4.053573619420369
247 1 6.074244647067046 28.351398667006652 6.07945062970974
248 1 4.050418873445826 30.375556814090423 6.079697184819063
249 1 8.099234570458231 28.35175781396534 4.052949560490047
250 1 10.125018707971659 30.375291698367064 4.053496934486748
251 1 10.123529004669658 28.351249009573312 6.078406925674734
252 1 8.099669909592855 30.375135440104053 6.079799517099298
253 1 12.149215595322982 28.351649555404663 4.052097473587507
254 1 14.175559520067482 30.37486500611167 4.0533095096772636
255 1 14.17420405806486 28.35104898997464 6.077237528099464
256 1 12.149730920703906 30.37452836961487 6.0795439306187085
257 1 0.0014576974442207938 0.0020295549282113687 8.105459433431763
258 1 2.025899355457875 2.026404976059586 8.105569743466111
259 1 2.0258168194043313 0.0015310490104370664 10.131301105846067
260 1 0.0010343571238462855 2.0263309219462404 10.13124537499762
261 1 4.0505136229506435 0.0017461412586192557 8.105766898104129
262 1 6.075113561551715 2.0254090250246595 8.106032480238335
263 1 6.075412060835118 0.00071928771801861 10.131930687186754
264 1 4.050598133408934 2.02582550804552 10.13163777546431
265 1 8.100005458880657 0.0007397870107338675 8.106338007288972
266 1 10.124924864215346 2.0237852177982107 8.106213141026629
267 1 10.125155101592222 -0.0006414956448877238 10.132342451475031
268 1 8.100321337515066 2.02449988377177 10.132103748421098
269 1 12.150049311426816 -0.0004495788636131387 8.106497969306758
270 1 14.175366576768157 2.0226396659563863 8.10602888423764
271 1 14.175081866454692 -0.0016898976518768974 10.132191451302328
272 1 12.150242576546427 2.023161811662943 10.13198471972642
273 1 0.0012835637538916793 4.0510773875670365 8.105696736482301
274 1 2.025247010477283 6.075455449382025 8.105960990752534
275 1 2.0256121552932647 4.050846378596679 10.13158848694185
276 1 0.0004904362370748185 6.075712669687668 10.131870674092307
277 1 4.0500937188043515 4.050338794129454 8.105812461858962
278 1 6.073911389719082 6.073699115197852 8.105148713473694
279 1 6.075224672225398 4.049721078047217 10.131681873032464
280 1 4.050024189138575 6.0749585669766635 10.131636630191013
281 1 8.099404142028872 4.048498436882706 8.105509038389162
282 1 10.123587140881016 6.071517361625798 8.103143691362883
283 1 10.125078458101106 4.0482303052523125 10.13092120536435
284 1 8.099800371604406 6.073548434632645 10.130043085097615
285 1 12.149603155576544 4.046726108635315 8.10460735266713
286 1 14.174265582699407 6.070298046347622 8.101074165177419
287 1 14.17496017024584 4.047297039996476 10.129715080737862
288 1 12.149808827711157 6.072641738541681 10.127261309017003
289 1 0.0006499734975840718 8.100390480079561 8.106264047870031
290 1 2.024085654176603 10.12499549627876 8.106095064111297
291 1 2.024783292161854 8.10013189260855 10.131998563955772
292 1 -0.00039824099419556193 10.12497465646664 10.132316988808293
293 1 4.048773560972575 8.099317282480987 8.10542824216646
294 1 6.072208143574037 10.12296285508592 8.103006339228275
295 1 6.074389857238065 8.098964065377057 10.129974903762655
296 1 4.049004026257012 10.124347860687598 10.130730730714005
297 1 8.09773722512167 8.0970201473237 8.10249594299891
298 1 10.121889082684719 10.120912171938054 8.097171525587221
299 1 10.124537973525925 8.097926622138978 10.125467404123206
300 1 8.099042504894275 10.123335467846697 10.125328934557876
301 1 12.148075012491523 8.095155908427682 8.098326488900243
302 1 14.173118205639389 10.119673027287927 8.091076437766088
303 1 14.174438991875865 8.097659501476114 10.120826632568422
304 1 12.149061887671264 10.122982960245329 10.117486786733657
305 1 -0.0001282307023589837 12.150171846480308 8.106439971448587
306 1 2.0231664516843515 14.175274287646506 8.105854304280289
307 1 2.023812713997999 12.14965281665256 10.13177553606793
308 1 -0.0011049418584421153 14.174521940932062 10.132168113047824
309 1 4.047347757879271 12.149247312987784 8.104391217273882
310 1 6.070992215566226 14.173555152416961 8.100652589293867
311 1 6.073581716553857 12.148709462160557 10.126895975645086
312 1 4.048058535538769 14.174106256961979 10.129283045403305
313 1 8.096002057454582 12.147115070425857 8.09805439096941
314 1 10.120314504095814 14.172264706397783 8.090659909136026
315 1 10.123829800270064 12.148058696104025 10.11723833687089
316 1 8.098242233957423 14.17348719336632 10.120183438110487
317 1 12.146396117889 12.145572714185668 8.088884345883379
318 1 14.172764203258097 14.172267070878082 8.081554617382348
319 1 14.175007205114015 12.149014748367325 10.108092028840826
320 1 12.149247847221877 14.174664170135468 10.107737099206792
321 1 -0.0005473895190445351 16.200634597624155 8.106380780689955
322 1 2.023003851374615 18.22598782822392 8.105818408526561
323 1 2.023185309634397 16.19953419960734 10.131354569696535
324 1 -0.0011095087663573317 18.224659359095792 10.132068855664857
325 1 4.0465909627751016 16.200051471451243 8.1036030014732
326 1 6.070565882311548 18.2250027215164 8.100194810275772
327 1 6.072675952937161 16.198752214585372 10.124614529263923
328 1 4.0477228103092076 18.224311503841893 10.12894526039997
329 1 8.094976123120434 16.19874692245695 8.095136782893935
330 1 10.120852504278544 18.224534151773167 8.090480840402629
331 1 10.124077097027094 16.199355961515913 10.112314003639298
332 1 8.09787400750806 18.224085493975316 10.119197379036779
333 1 12.146175564499494 16.198719932875445 8.08399125419017
334 1 14.172985823830938 18.224724295882616 8.07967024176221
335 1 14.175740773993533 16.20186754346409 10.101542372993315
336 1 12.153697818387677 18.2248655393169 10.109391389196093
337 1 -0.0002482267645523395 20.251297188971296 8.106489180753913
338 1 2.023785413552552 22.27645988670572 8.106140430919758
339 1 2.02346635450171 20.249756350299037 10.131544647116957
340 1 -0.0004049084195857621 22.274950777131373 10.132219294027648
341 1 4.04698733678627 20.25105964138886 8.104152928375495
342 1 6.071558459030481 22.276112319699653 8.102338711387768
343 1 6.072609319817082 20.249195335486622 10.125838434330074
344 1 4.048338382914595 22.27459901092045 10.130193827446954
345 1 8.095352867327314 20.250376630161433 8.096783793625194
346 1 10.120871786904038 22.275851836599635 8.094826373741594
347 1 10.1240847281811 20.248492739012274 10.115140150196776
348 1 8.098116968299733 22.273857485432828 10.123503195766418
349 1 12.146492177206127 20.250015538718376 8.086949904763795
350 1 14.173036964563849 22.27620348948387 8.087481940078241
351 1 14.176420410863821 20.247591541720087 10.105526659421507
352 1 12.149413825354785 22.273483425974035 10.113572534117415
353 1 0.00044237425091760277 24.30135797569649 8.10644013411782
354 1 2.0249444535835304 26.32610857179684 8.106106755636622
355 1 2.0244283604910014 24.299898042227035 10.131882942332144
356 1 0.0004356513065526899 26.324858231488246 10.131958465832092
357 1 4.0483388599293555 24.301334351931185 8.105308955272404
358 1 6.073362992928969 26.325954627063933 8.104818452731742
359 1 6.07346520948788 24.299257870019186 10.129040482610067
360 1 4.049482767818913 26.32456004447654 10.131369622242993
361 1 8.096743990775321 24.301102175547378 8.101344281165513
362 1 10.122472970035215 26.325653031289114 8.10175856813673
363 1 10.123588288592005 24.298241240678173 10.123017612434724
364 1 8.098836692966758 26.32355418110504 10.128935053113485
365 1 12.146978214520768 24.301001966810233 8.095427969529629
366 1 14.17339777042352 26.325622376165914 8.098361803913438
367 1 14.17517787563069 24.298107334934897 10.116329734521866
368 1 12.148974706736535 26.32265822237627 10.124763486817937
369 1 0.0011188727469656097 28.350600285734853 8.10590790717109
370 1 2.0257756299028222 30.375066553382663 8.105659862147812
371 1 2.025374178626816 28.34961409834463 10.131631428821036
372 1 0.0010039680360467587 30.37437059187986 10.131356068912856
373 1 4.049793529476742 28.350577830625333 8.105805844576539
374 1 6.074872223448058 30.374654603549082 8.10593673198368
375 1 6.074677710633245 28.348907112235764 10.131323836497058
376 1 4.050387667629123 30.374066911083354 10.131583387680642
377 1 8.098757343877551 28.350163612315047 8.105055860327907
378 1 10.124426349137858 30.373794685631932 8.105868471663044
379 1 10.124217177512952 28.347674881812623 10.129891173204191
380 1 8.099921865495206 30.3729502713003 10.131813331749397
381 1 12.148568861556939 28.34963110939718 8.103410197183718
382 1 14.174749811898101 30.37310812273839 8.105340826212583
383 1 14.174412090180779 28.34681269802085 10.127880950137456
384 1 12.149637637260529 30.371731352959895 10.131304083437325
385 1 0.0007611383289542258 0.0012174857357898639 12.156453689583467
386 1 2.025800101722244 2.026090170885471 12.156662246377284
387 1 2.0259079961485247 0.0007285594479658316 14.181256661367227
388 1 0.0003702197748032145 2.0262641879371377 14.181193524171245
389 1 4.050878737011285 0.0007098823557808266 12.156869404992303
390 1 6.076036887038606 2.025211501620339 12.157238802930053
391 1 6.076548048245263 -0.0003971933302530883 14.181763736360976
392 1 4.051400313150279 2.025764873109518 14.181588865833216
393 1 8.100859913965591 -0.000633176785643507 12.157451960169142
394 1 10.125924572912291 2.024025429970642 12.1573819748582
395 1 10.126376744339131 -0.0019847875407088766 14.181882739347015
396 1 8.101906508346895 2.024901373785451 14.18193748141764
397 1 12.150421094335526 -0.0020314288978515683 12.157418232911297
398 1 14.175250912234238 2.0231114215403587 12.156868357325893
399 1 14.175233007104213 -0.0030317660250109082 14.18150429216693
400 1 12.151210987911883 2.0239898650249537 14.181532374645947
401 1 0.0003846159541985345 4.051196756942525 12.15678782251164
402 1 2.025409833290376 6.075823835866812 12.157146605481602
403 1 2.0258133657057207 4.051326716134381 14.18152670131897
404 1 -0.0004208902398438853 6.076492166050052 14.18171569927901
405 1 4.05093034388517 4.05069428655205 12.1570281781081
406 1 6.076158484811489 6.07528674164411 12.156372647117335
407 1 6.077102987445314 4.050996674841439 14.181620003597084
408 1 4.051723695061187 6.076347405762183 14.181541555484493
409 1 8.101209085512144 4.049831632640078 12.156744412568171
410 1 10.126473543154608 6.075158907043861 12.153729259363201
411 1 10.12735158580327 4.050875158430129 14.180561560580834
412 1 8.10322888037374 6.076998419480039 14.17972310242351
413 1 12.150829099676118 4.0491409868886965 12.15535272419115
414 1 14.175398768651695 6.075177461565205 12.150425455879391
415 1 14.17573867219283 4.050825867907363 14.178968259654798
416 1 12.152538341789981 6.077772310331193 14.176100610450042
417 1 -0.0005152259504251808 8.100661226574525 12.157440547819307
418 1 2.0247332471495993 10.125107227400651 12.157198269397153
419 1 2.025532113745331 8.101149978183058 14.181792601750164
420 1 -0.001463068421482236 10.125622725540332 14.181913915304616
421 1 4.050657888652505 8.100358368409365 12.15660530116553
422 1 6.076349440496871 10.125144781212594 12.153486025243774
423 1 6.078277147945653 8.10188760711133 14.179608287242196
424 1 4.052000774915413 10.126014572348332 14.180266837701245
425 1 8.101655980922512 8.100329907967968 12.152938937796945
426 1 10.127338374675034 10.126187796996481 12.145650567409003
427 1 10.129468463984246 8.103684037109113 14.174082172208804
428 1 8.105012817663857 10.128025719401917 14.17389869623139
429 1 12.151386590786478 8.10110989966199 12.147127843712841
430 1 14.177305676221948 10.12899815489878 12.138697027990105
431 1 14.17751498339611 8.105947454747053 14.16914944953061
432 1 12.155687653222998 10.132086725182614 14.16651417829049
433 1 -0.0014215552876215565 12.149580525812139 12.157434028803436
434 1 2.023979233714498 14.174117078331385 12.156533045536982
435 1 2.025006828627852 12.149897087822469 14.181249918251567
436 1 -0.0020782155736965365 14.173907071800008 14.181528298378318
437 1 4.050135927339367 12.149598185911454 12.154959125231583
438 1 6.075895563129568 14.174232466413306 12.14975161650888
439 1 6.078876564400635 12.151049902063702 14.17560976159159
440 1 4.051782474098414 14.174335335509062 14.178396876400955
441 1 8.102065066310159 12.150151910776433 12.146707613413017
442 1 10.129066326595195 14.176802961583114 12.13796776370341
443 1 10.1325039473547 12.155014760564244 14.166170324492748
444 1 8.106193474691134 14.176693865716897 14.16833873652933
445 1 12.153579767498444 12.153303308038645 12.136538592190933
446 1 14.177756013637046 14.17849041850088 12.126389365066524
447 1 14.18181820404381 12.16386671293387 14.160003212663879
448 1 12.162845584203788 14.182359682761463 14.159528972855854
449 1 -0.0017616285873775473 16.198653056093665 12.157079127486869
450 1 2.0237609279379414 18.223340703479675 12.156309063837055
451 1 2.0245727315123245 16.198136025354593 14.180597450677345
452 1 -0.0019312407312147561 18.222446134915458 14.181313897444081
453 1 4.049554226937764 16.198565420621627 12.153657393365844
454 1 6.0753139587109155 18.223007837765252 12.149134772143734
455 1 6.078813891168759 16.198748783453944 14.172937226753717
456 1 4.051253244201252 18.222163201868053 14.177803042734205
457 1 8.102178978351022 16.199220150777894 12.142930042422064
458 1 10.128849437248533 18.22400725537785 12.136701490312786
459 1 10.13449990684534 16.202056759919515 14.160101677256863
460 1 8.105633701629626 18.222920355500705 14.166722368241114
461 1 12.1572772984871 16.203026065403307 12.131054658633719
462 1 14.19582039868212 18.224248425713586 12.140960675999004
463 1 14.185595886518877 16.20980225475843 14.145861611584653
464 1 12.163473494083046 18.223326891621028 14.15464709624564
465 1 -0.0012795031614981792 20.24833024375178 12.157132501403833
466 1 2.024296933099054 22.273150667985124 12.156726659932458
467 1 2.0246448516835134 20.246823235888677 14.180734341485122
468 1 -0.0010396776927091048 22.271912933090817 14.181551604417804
469 1 4.049339068135428 20.247837688688026 12.154162164596467
470 1 6.075011963150329 22.272180595468168 12.151964031705639
471 1 6.077797187378048 20.24605211378465 14.174295778951944
472 1 4.050888522842209 22.271008996049353 14.179185296656541
473 1 8.101501241052045 20.247276209458843 12.144732208239812
474 1 10.127863455377721 22.27061740769666 12.14280508659526
475 1 10.1334018232627 20.24538101015923 14.16332135049653
476 1 8.104199011796911 22.269188353022653 14.171616246107108
477 1 12.15593516830554 20.246027992549138 12.13266243949002
478 1 14.178374271866053 22.270640734125966 12.132908377526936
479 1 14.18549698254137 20.246446825359936 14.151940810088185