LAMMPS (29 Aug 2024)
Running on 13 partitions of processors
    Step     MaxReplicaForce  MaxAtomForce      GradV0         GradV1         GradVc          EBF            EBR            RDT            RD1            PE1            RD2            PE2            RD3            PE3            RD4            PE4            RD5            PE5            RD6            PE6            RD7            PE7            RD8            PE8            RD9            PE9            RD10           PE10           RD11           PE11           RD12           PE12           RD13           PE13      
         0   2.7863729        1.2466903      0.0030405735   0.034945351    2.7863898      1.2465649      1.245525       2.7655834      0              -6877.245      0.083333333    -6877.1606     0.16666667     -6876.9372     0.25           -6876.6361     0.33333333     -6876.3351     0.41666667     -6876.0978     0.5            -6875.9984     0.58333333     -6876.1014     0.66666667     -6876.3398     0.75           -6876.6413     0.83333333     -6876.9417     0.91666667     -6877.1631     1              -6877.244      
      1000   5.2159242e-05    3.8670365e-11  3.0958867e-07  1.392366e-05   0.0067104113   0.63277586     0.63230984     3.3580746      0              -6877.245      0.083333335    -6877.2227     0.16666667     -6877.1402     0.25           -6877.0008     0.33333332     -6876.8316     0.41666666     -6876.6889     0.49999999     -6876.6122     0.58333333     -6876.6863     0.66666667     -6876.8284     0.74999999     -6876.9976     0.83333332     -6877.1382     0.91666665     -6877.2218     1              -6877.2445     
      1345   9.0916675e-06    1.2267047e-12  5.4103641e-08  2.4261435e-06  0.006660537    0.632776       0.63230998     3.3581525      0              -6877.245      0.083333334    -6877.2227     0.16666667     -6877.1403     0.25           -6877.0008     0.33333333     -6876.8316     0.41666667     -6876.6889     0.5            -6876.6122     0.58333333     -6876.6863     0.66666666     -6876.8284     0.75           -6876.9977     0.83333333     -6877.1382     0.91666666     -6877.2218     1              -6877.2445     
Climbing replica = 7
    Step     MaxReplicaForce  MaxAtomForce      GradV0         GradV1         GradVc          EBF            EBR            RDT            RD1            PE1            RD2            PE2            RD3            PE3            RD4            PE4            RD5            PE5            RD6            PE6            RD7            PE7            RD8            PE8            RD9            PE9            RD10           PE10           RD11           PE11           RD12           PE12           RD13           PE13      
      1345   0.006660537      2.0681382e-05  5.4103641e-08  2.4261435e-06  0.006660537    0.632776       0.63230998     3.3581525      0              -6877.245      0.083333334    -6877.2227     0.16666667     -6877.1403     0.25           -6877.0008     0.33333333     -6876.8316     0.41666667     -6876.6889     0.5            -6876.6122     0.58333333     -6876.6863     0.66666666     -6876.8284     0.75           -6876.9977     0.83333333     -6877.1382     0.91666666     -6877.2218     1              -6877.2445     
      1552   7.5511725e-06    5.8876241e-13  2.1684656e-08  9.7195489e-07  7.5181647e-06  0.63278579     0.63231977     3.358156       0              -6877.245      0.083473094    -6877.2226     0.16694619     -6877.1398     0.25041929     -6877          0.33389238     -6876.8304     0.41736548     -6876.6878     0.50083857     -6876.6122     0.58403214     -6876.6874     0.66722571     -6876.8296     0.75041929     -6876.9986     0.83361286     -6877.1386     0.91680643     -6877.2219     1              -6877.2445     
