ITEM: TIMESTEP
0
ITEM: NUMBER OF ATOMS
1439
ITEM: BOX BOUNDS pp pp pp
1.3576272574649679e-03 2.4298642372742531e+01
1.3576272574649679e-03 2.4298642372742531e+01
2.2627120957749453e-03 4.0497737287904229e+01
ITEM: ATOMS id type xu yu zu
1 1 0.00121316 0.00121316 0.00211825
2 1 2.0261 2.0261 0.00225078
3 1 2.0261 0.0013457 2.02701
4 1 0.0013457 2.0261 2.02701
5 1 4.05089 0.00135164 0.00225672
6 1 6.07568 2.02613 0.00226266
7 1 6.07568 0.00135757 2.02704
8 1 4.05091 2.02613 2.02704
9 1 8.10045 0.00135751 0.0022626
10 1 10.1252 2.02613 0.00226266
11 1 10.1252 0.00135757 2.02704
12 1 8.10045 2.02613 2.02704
13 1 12.15 0.00135164 0.00225672
14 1 14.1748 2.0261 0.00225078
15 1 14.1748 0.0013457 2.02701
16 1 12.15 2.02613 2.02704
17 1 16.1997 0.00121316 0.00211825
18 1 18.2245 2.02592 0.00219233
19 1 18.2245 0.00128725 2.02683
20 1 16.1996 2.0261 2.02701
21 1 20.2491 -0.00454422 -0.00363913
22 1 22.2737 2.02592 0.00219233
23 1 22.2737 0.00128725 2.02683
24 1 20.2491 2.02588 2.02679
25 1 0.00135164 4.05089 0.00225672
26 1 2.02613 6.07568 0.00226266
27 1 2.02613 4.05091 2.02704
28 1 0.00135757 6.07568 2.02704
29 1 4.05091 4.05091 0.00226264
30 1 6.07568 6.07568 0.00226269
31 1 6.07568 4.05091 2.02704
32 1 4.05091 6.07568 2.02704
33 1 8.10045 4.05091 0.00226269
34 1 10.1252 6.07568 0.00226269
35 1 10.1252 4.05091 2.02704
36 1 8.10045 6.07568 2.02704
37 1 12.15 4.05091 0.00226264
38 1 14.1748 6.07568 0.00226266
39 1 14.1748 4.05091 2.02704
40 1 12.15 6.07568 2.02704
41 1 16.1996 4.05089 0.00225672
42 1 18.2243 6.07568 0.0022632
43 1 18.2243 4.05088 2.02702
44 1 16.1995 6.07568 2.02704
45 1 20.2491 4.05083 0.00222326
46 1 22.2739 6.07568 0.0022632
47 1 22.2739 4.05088 2.02702
48 1 20.2491 6.07568 2.02704
49 1 0.00135751 8.10045 0.0022626
50 1 2.02613 10.1252 0.00226266
51 1 2.02613 8.10045 2.02704
52 1 0.00135757 10.1252 2.02704
53 1 4.05091 8.10045 0.00226269
54 1 6.07568 10.1252 0.00226269
55 1 6.07568 8.10045 2.02704
56 1 4.05091 10.1252 2.02704
57 1 8.10045 8.10045 0.00226271
58 1 10.1252 10.1252 0.00226269
59 1 10.1252 8.10045 2.02704
60 1 8.10045 10.1252 2.02704
61 1 12.15 8.10045 0.00226269
62 1 14.1748 10.1252 0.00226266
63 1 14.1748 8.10045 2.02704
64 1 12.15 10.1252 2.02704
65 1 16.1995 8.10045 0.0022626
66 1 18.2243 10.1252 0.0022632
67 1 18.2243 8.10045 2.02704
68 1 16.1995 10.1252 2.02704
69 1 20.2491 8.10045 0.00226256
70 1 22.2739 10.1252 0.0022632
71 1 22.2739 8.10045 2.02704
72 1 20.2491 10.1252 2.02704
73 1 0.00135164 0.00135164 4.0518
74 1 2.02613 2.02613 4.05181
75 1 2.02613 0.00135758 6.07658
76 1 0.00135758 2.02613 6.07658
77 1 4.05091 0.00135755 4.05181
78 1 6.07568 2.02613 4.05181
79 1 6.07568 0.00135761 6.07658
80 1 4.05091 2.02613 6.07658
81 1 8.10045 0.0013576 4.05181
82 1 10.1252 2.02613 4.05181
83 1 10.1252 0.00135761 6.07658
84 1 8.10045 2.02613 6.07658
85 1 12.15 0.00135755 4.05181
86 1 14.1748 2.02613 4.05181
87 1 14.1748 0.00135758 6.07658
88 1 12.15 2.02613 6.07658
89 1 16.1996 0.00135164 4.0518
90 1 18.2243 2.02611 4.05179
91 1 18.2243 0.00135813 6.07658
92 1 16.1995 2.02613 6.07658
93 1 20.2491 0.00131817 4.05173
94 1 22.2739 2.02611 4.05179
95 1 22.2739 0.00135813 6.07658
96 1 20.2491 2.02613 6.07658
97 1 0.00135755 4.05091 4.05181
98 1 2.02613 6.07568 4.05181
99 1 2.02613 4.05091 6.07658
100 1 0.00135761 6.07568 6.07658
101 1 4.05091 4.05091 4.05181
102 1 6.07568 6.07568 4.05181
103 1 6.07568 4.05091 6.07658
104 1 4.05091 6.07568 6.07658
105 1 8.10045 4.05091 4.05181
106 1 10.1252 6.07568 4.05181
107 1 10.1252 4.05091 6.07658
108 1 8.10045 6.07568 6.07658
109 1 12.15 4.05091 4.05181
110 1 14.1748 6.07568 4.05181
111 1 14.1748 4.05091 6.07658
112 1 12.15 6.07568 6.07658
113 1 16.1995 4.05091 4.05181
114 1 18.2243 6.07568 4.05181
115 1 18.2243 4.05091 6.07658
116 1 16.1995 6.07568 6.07658
117 1 20.2491 4.0509 4.05181
118 1 22.2739 6.07568 4.05181
119 1 22.2739 4.05091 6.07658
120 1 20.2491 6.07568 6.07658
121 1 0.0013576 8.10045 4.05181
122 1 2.02613 10.1252 4.05181
123 1 2.02613 8.10045 6.07658
124 1 0.00135761 10.1252 6.07658
125 1 4.05091 8.10045 4.05181
126 1 6.07568 10.1252 4.05181
127 1 6.07568 8.10045 6.07658
128 1 4.05091 10.1252 6.07658
129 1 8.10045 8.10045 4.05181
130 1 10.1252 10.1252 4.05181
131 1 10.1252 8.10045 6.07658
132 1 8.10045 10.1252 6.07658
133 1 12.15 8.10045 4.05181
134 1 14.1748 10.1252 4.05181
135 1 14.1748 8.10045 6.07658
136 1 12.15 10.1252 6.07658
137 1 16.1995 8.10045 4.05181
138 1 18.2243 10.1252 4.05181
139 1 18.2243 8.10045 6.07658
140 1 16.1995 10.1252 6.07658
141 1 20.2491 8.10045 4.05181
142 1 22.2739 10.1252 4.05181
143 1 22.2739 8.10045 6.07658
144 1 20.2491 10.1252 6.07658
145 1 0.00135757 0.00135757 8.10136
146 1 2.02613 2.02613 8.10136
147 1 2.02613 0.00135762 10.1261
148 1 0.00135762 2.02613 10.1261
149 1 4.05091 0.00135761 8.10136
150 1 6.07568 2.02613 8.10136
151 1 6.07568 0.00135763 10.1261
152 1 4.05091 2.02613 10.1261
153 1 8.10045 0.00135763 8.10136
154 1 10.1252 2.02613 8.10136
155 1 10.1252 0.00135763 10.1261
156 1 8.10045 2.02613 10.1261
157 1 12.15 0.00135761 8.10136
158 1 14.1748 2.02613 8.10136
159 1 14.1748 0.00135762 10.1261
160 1 12.15 2.02613 10.1261
161 1 16.1995 0.00135757 8.10136
162 1 18.2243 2.02613 8.10136
163 1 18.2243 0.00135761 10.1261
164 1 16.1995 2.02613 10.1261
165 1 20.2491 0.00135755 8.10136
166 1 22.2739 2.02613 8.10136
167 1 22.2739 0.00135761 10.1261
168 1 20.2491 2.02613 10.1261
169 1 0.00135761 4.05091 8.10136
170 1 2.02613 6.07568 8.10136
171 1 2.02613 4.05091 10.1261
172 1 0.00135763 6.07568 10.1261
173 1 4.05091 4.05091 8.10136
174 1 6.07568 6.07568 8.10136
175 1 6.07568 4.05091 10.1261
176 1 4.05091 6.07568 10.1261
177 1 8.10045 4.05091 8.10136
178 1 10.1252 6.07568 8.10136
179 1 10.1252 4.05091 10.1261
180 1 8.10045 6.07568 10.1261
181 1 12.15 4.05091 8.10136
182 1 14.1748 6.07568 8.10136
183 1 14.1748 4.05091 10.1261
184 1 12.15 6.07568 10.1261
185 1 16.1995 4.05091 8.10136
186 1 18.2243 6.07568 8.10136
187 1 18.2243 4.05091 10.1261
188 1 16.1995 6.07568 10.1261
189 1 20.2491 4.05091 8.10136
190 1 22.2739 6.07568 8.10136
191 1 22.2739 4.05091 10.1261
192 1 20.2491 6.07568 10.1261
193 1 0.00135763 8.10045 8.10136
194 1 2.02613 10.1252 8.10136
195 1 2.02613 8.10045 10.1261
196 1 0.00135763 10.1252 10.1261
197 1 4.05091 8.10045 8.10136
198 1 6.07568 10.1252 8.10136
199 1 6.07568 8.10045 10.1261
200 1 4.05091 10.1252 10.1261
201 1 8.10045 8.10045 8.10136
202 1 10.1252 10.1252 8.10136
203 1 10.1252 8.10045 10.1261
204 1 8.10045 10.1252 10.1261
205 1 12.15 8.10045 8.10136
206 1 14.1748 10.1252 8.10136
207 1 14.1748 8.10045 10.1261
208 1 12.15 10.1252 10.1261
209 1 16.1995 8.10045 8.10136
210 1 18.2243 10.1252 8.10136
211 1 18.2243 8.10045 10.1261
212 1 16.1995 10.1252 10.1261
213 1 20.2491 8.10045 8.10136
214 1 22.2739 10.1252 8.10136
215 1 22.2739 8.10045 10.1261
216 1 20.2491 10.1252 10.1261
217 1 0.00135763 0.00135763 12.1509
218 1 2.02613 2.02613 12.1509
219 1 2.02613 0.00135763 14.1757
220 1 0.00135763 2.02613 14.1757
221 1 4.05091 0.00135763 12.1509
222 1 6.07568 2.02613 12.1509
223 1 6.07568 0.00135763 14.1757
224 1 4.05091 2.02613 14.1757
225 1 8.10045 0.00135763 12.1509
226 1 10.1252 2.02613 12.1509
227 1 10.1252 0.00135763 14.1757
228 1 8.10045 2.02613 14.1757
229 1 12.15 0.00135763 12.1509
230 1 14.1748 2.02613 12.1509
231 1 14.1748 0.00135763 14.1757
232 1 12.15 2.02613 14.1757
233 1 16.1995 0.00135763 12.1509
234 1 18.2243 2.02613 12.1509
235 1 18.2243 0.00135763 14.1757
236 1 16.1995 2.02613 14.1757
237 1 20.2491 0.00135763 12.1509
238 1 22.2739 2.02613 12.1509
239 1 22.2739 0.00135763 14.1757
240 1 20.2491 2.02613 14.1757
241 1 0.00135763 4.05091 12.1509
242 1 2.02613 6.07568 12.1509
243 1 2.02613 4.05091 14.1757
244 1 0.00135763 6.07568 14.1757
245 1 4.05091 4.05091 12.1509
246 1 6.07568 6.07568 12.1509
247 1 6.07568 4.05091 14.1757
248 1 4.05091 6.07568 14.1757
249 1 8.10045 4.05091 12.1509
250 1 10.1252 6.07568 12.1509
251 1 10.1252 4.05091 14.1757
252 1 8.10045 6.07568 14.1757
253 1 12.15 4.05091 12.1509
254 1 14.1748 6.07568 12.1509
255 1 14.1748 4.05091 14.1757
256 1 12.15 6.07568 14.1757
257 1 16.1995 4.05091 12.1509
258 1 18.2243 6.07568 12.1509
259 1 18.2243 4.05091 14.1757
260 1 16.1995 6.07568 14.1757
261 1 20.2491 4.05091 12.1509
262 1 22.2739 6.07568 12.1509
263 1 22.2739 4.05091 14.1757
264 1 20.2491 6.07568 14.1757
265 1 0.00135763 8.10045 12.1509
266 1 2.02613 10.1252 12.1509
267 1 2.02613 8.10045 14.1757
268 1 0.00135763 10.1252 14.1757
269 1 4.05091 8.10045 12.1509
270 1 6.07568 10.1252 12.1509
271 1 6.07568 8.10045 14.1757
272 1 4.05091 10.1252 14.1757
273 1 8.10045 8.10045 12.1509
274 1 10.1252 10.1252 12.1509
275 1 10.1252 8.10045 14.1757
276 1 8.10045 10.1252 14.1757
277 1 12.15 8.10045 12.1509
278 1 14.1748 10.1252 12.1509
279 1 14.1748 8.10045 14.1757
280 1 12.15 10.1252 14.1757
281 1 16.1995 8.10045 12.1509
282 1 18.2243 10.1252 12.1509
283 1 18.2243 8.10045 14.1757
284 1 16.1995 10.1252 14.1757
285 1 20.2491 8.10045 12.1509
286 1 22.2739 10.1252 12.1509
287 1 22.2739 8.10045 14.1757
288 1 20.2491 10.1252 14.1757
289 1 0.00135763 0.00135763 16.2005
290 1 2.02613 2.02613 16.2005
291 1 2.02613 0.00135763 18.2252
292 1 0.00135763 2.02613 18.2252
293 1 4.05091 0.00135763 16.2005
294 1 6.07568 2.02613 16.2005
295 1 6.07568 0.00135763 18.2252
296 1 4.05091 2.02613 18.2252
297 1 8.10045 0.00135763 16.2005
298 1 10.1252 2.02613 16.2005
299 1 10.1252 0.00135763 18.2252
300 1 8.10045 2.02613 18.2252
301 1 12.15 0.00135763 16.2005
302 1 14.1748 2.02613 16.2005
303 1 14.1748 0.00135763 18.2252
304 1 12.15 2.02613 18.2252
305 1 16.1995 0.00135763 16.2005
306 1 18.2243 2.02613 16.2005
307 1 18.2243 0.00135763 18.2252
308 1 16.1995 2.02613 18.2252
309 1 20.2491 0.00135763 16.2005
310 1 22.2739 2.02613 16.2005
311 1 22.2739 0.00135763 18.2252
312 1 20.2491 2.02613 18.2252
313 1 0.00135763 4.05091 16.2005
314 1 2.02613 6.07568 16.2005
315 1 2.02613 4.05091 18.2252
316 1 0.00135763 6.07568 18.2252
317 1 4.05091 4.05091 16.2005
318 1 6.07568 6.07568 16.2005
319 1 6.07568 4.05091 18.2252
320 1 4.05091 6.07568 18.2252
321 1 8.10045 4.05091 16.2005
322 1 10.1252 6.07568 16.2005
323 1 10.1252 4.05091 18.2252
324 1 8.10045 6.07568 18.2252
325 1 12.15 4.05091 16.2005
326 1 14.1748 6.07568 16.2005
327 1 14.1748 4.05091 18.2252
328 1 12.15 6.07568 18.2252
329 1 16.1995 4.05091 16.2005
330 1 18.2243 6.07568 16.2005
331 1 18.2243 4.05091 18.2252
332 1 16.1995 6.07568 18.2252
333 1 20.2491 4.05091 16.2005
334 1 22.2739 6.07568 16.2005
335 1 22.2739 4.05091 18.2252
336 1 20.2491 6.07568 18.2252
337 1 0.00135763 8.10045 16.2005
338 1 2.02613 10.1252 16.2005
339 1 2.02613 8.10045 18.2252
340 1 0.00135763 10.1252 18.2252
341 1 4.05091 8.10045 16.2005
342 1 6.07568 10.1252 16.2005
343 1 6.07568 8.10045 18.2252
344 1 4.05091 10.1252 18.2252
345 1 8.10045 8.10045 16.2005
346 1 10.1252 10.1252 16.2005
347 1 10.1252 8.10045 18.2252
348 1 8.10045 10.1252 18.2252
349 1 12.15 8.10045 16.2005
350 1 14.1748 10.1252 16.2005
351 1 14.1748 8.10045 18.2252
352 1 12.15 10.1252 18.2252
353 1 16.1995 8.10045 16.2005
354 1 18.2243 10.1252 16.2005
355 1 18.2243 8.10045 18.2252
356 1 16.1995 10.1252 18.2252
357 1 20.2491 8.10045 16.2005
358 1 22.2739 10.1252 16.2005
359 1 22.2739 8.10045 18.2252
360 1 20.2491 10.1252 18.2252
361 1 0.00135763 0.00135763 20.25
362 1 2.02613 2.02613 20.25
363 1 2.02613 0.00135762 22.2748
364 1 0.00135762 2.02613 22.2748
365 1 4.05091 0.00135763 20.25
366 1 6.07568 2.02613 20.25
367 1 6.07568 0.00135763 22.2748
368 1 4.05091 2.02613 22.2748
369 1 8.10045 0.00135763 20.25
370 1 10.1252 2.02613 20.25
371 1 10.1252 0.00135763 22.2748
372 1 8.10045 2.02613 22.2748
373 1 12.15 0.00135763 20.25
374 1 14.1748 2.02613 20.25
375 1 14.1748 0.00135762 22.2748
376 1 12.15 2.02613 22.2748
377 1 16.1995 0.00135763 20.25
378 1 18.2243 2.02613 20.25
379 1 18.2243 0.00135761 22.2748
380 1 16.1995 2.02613 22.2748
381 1 20.2491 0.00135763 20.25
382 1 22.2739 2.02613 20.25
383 1 22.2739 0.00135761 22.2748
384 1 20.2491 2.02613 22.2748
385 1 0.00135763 4.05091 20.25
386 1 2.02613 6.07568 20.25
387 1 2.02613 4.05091 22.2748
388 1 0.00135763 6.07568 22.2748
389 1 4.05091 4.05091 20.25
390 1 6.07568 6.07568 20.25
391 1 6.07568 4.05091 22.2748
392 1 4.05091 6.07568 22.2748
393 1 8.10045 4.05091 20.25
394 1 10.1252 6.07568 20.25
395 1 10.1252 4.05091 22.2748
396 1 8.10045 6.07568 22.2748
397 1 12.15 4.05091 20.25
398 1 14.1748 6.07568 20.25
399 1 14.1748 4.05091 22.2748
400 1 12.15 6.07568 22.2748
401 1 16.1995 4.05091 20.25
402 1 18.2243 6.07568 20.25
403 1 18.2243 4.05091 22.2748
404 1 16.1995 6.07568 22.2748
405 1 20.2491 4.05091 20.25
406 1 22.2739 6.07568 20.25
407 1 22.2739 4.05091 22.2748
408 1 20.2491 6.07568 22.2748
409 1 0.00135763 8.10045 20.25
410 1 2.02613 10.1252 20.25
411 1 2.02613 8.10045 22.2748
412 1 0.00135763 10.1252 22.2748
413 1 4.05091 8.10045 20.25
414 1 6.07568 10.1252 20.25
415 1 6.07568 8.10045 22.2748
416 1 4.05091 10.1252 22.2748
417 1 8.10045 8.10045 20.25
418 1 10.1252 10.1252 20.25
419 1 10.1252 8.10045 22.2748
420 1 8.10045 10.1252 22.2748
421 1 12.15 8.10045 20.25
422 1 14.1748 10.1252 20.25
423 1 14.1748 8.10045 22.2748
424 1 12.15 10.1252 22.2748
425 1 16.1995 8.10045 20.25
426 1 18.2243 10.1252 20.25
427 1 18.2243 8.10045 22.2748
428 1 16.1995 10.1252 22.2748
429 1 20.2491 8.10045 20.25
430 1 22.2739 10.1252 20.25
431 1 22.2739 8.10045 22.2748
432 1 20.2491 10.1252 22.2748
433 1 0.00135757 0.00135757 24.2995
434 1 2.02613 2.02613 24.2995
435 1 2.02613 0.00135758 26.3243
436 1 0.00135758 2.02613 26.3243
437 1 4.05091 0.00135761 24.2995
438 1 6.07568 2.02613 24.2995
439 1 6.07568 0.00135761 26.3243
440 1 4.05091 2.02613 26.3243
441 1 8.10045 0.00135763 24.2995
442 1 10.1252 2.02613 24.2995
443 1 10.1252 0.00135761 26.3243
444 1 8.10045 2.02613 26.3243
445 1 12.15 0.00135761 24.2995
446 1 14.1748 2.02613 24.2995
447 1 14.1748 0.00135758 26.3243
448 1 12.15 2.02613 26.3243
449 1 16.1995 0.00135757 24.2995
450 1 18.2243 2.02613 24.2995
451 1 18.2243 0.00135813 26.3243
452 1 16.1995 2.02613 26.3243
453 1 20.2491 0.00135755 24.2995
454 1 22.2739 2.02613 24.2995
455 1 22.2739 0.00135813 26.3243
456 1 20.2491 2.02613 26.3243
457 1 0.00135761 4.05091 24.2995
458 1 2.02613 6.07568 24.2995
459 1 2.02613 4.05091 26.3243
460 1 0.00135761 6.07568 26.3243
461 1 4.05091 4.05091 24.2995
462 1 6.07568 6.07568 24.2995
463 1 6.07568 4.05091 26.3243
464 1 4.05091 6.07568 26.3243
465 1 8.10045 4.05091 24.2995
466 1 10.1252 6.07568 24.2995
467 1 10.1252 4.05091 26.3243
468 1 8.10045 6.07568 26.3243
469 1 12.15 4.05091 24.2995
470 1 14.1748 6.07568 24.2995
471 1 14.1748 4.05091 26.3243
472 1 12.15 6.07568 26.3243
473 1 16.1995 4.05091 24.2995
474 1 18.2243 6.07568 24.2995
475 1 18.2243 4.05091 26.3243
476 1 16.1995 6.07568 26.3243
477 1 20.2491 4.05091 24.2995
478 1 22.2739 6.07568 24.2995
479 1 22.2739 4.05091 26.3243
480 1 20.2491 6.07568 26.3243
481 1 0.00135763 8.10045 24.2995
482 1 2.02613 10.1252 24.2995
483 1 2.02613 8.10045 26.3243
484 1 0.00135761 10.1252 26.3243
485 1 4.05091 8.10045 24.2995
486 1 6.07568 10.1252 24.2995
487 1 6.07568 8.10045 26.3243
488 1 4.05091 10.1252 26.3243
489 1 8.10045 8.10045 24.2995
490 1 10.1252 10.1252 24.2995
491 1 10.1252 8.10045 26.3243
492 1 8.10045 10.1252 26.3243
493 1 12.15 8.10045 24.2995
494 1 14.1748 10.1252 24.2995
495 1 14.1748 8.10045 26.3243
496 1 12.15 10.1252 26.3243
497 1 16.1995 8.10045 24.2995
498 1 18.2243 10.1252 24.2995
499 1 18.2243 8.10045 26.3243
500 1 16.1995 10.1252 26.3243
501 1 20.2491 8.10045 24.2995
502 1 22.2739 10.1252 24.2995
503 1 22.2739 8.10045 26.3243
504 1 20.2491 10.1252 26.3243
505 1 0.00135164 0.00135164 28.3491
506 1 2.02613 2.02613 28.3491
507 1 2.0261 0.0013457 30.3739
508 1 0.0013457 2.0261 30.3739
509 1 4.05091 0.00135755 28.3491
510 1 6.07568 2.02613 28.3491
511 1 6.07568 0.00135757 30.3739
512 1 4.05091 2.02613 30.3739
513 1 8.10045 0.0013576 28.3491
514 1 10.1252 2.02613 28.3491
515 1 10.1252 0.00135757 30.3739
516 1 8.10045 2.02613 30.3739
517 1 12.15 0.00135755 28.3491
518 1 14.1748 2.02613 28.3491
519 1 14.1748 0.0013457 30.3739
520 1 12.15 2.02613 30.3739
521 1 16.1996 0.00135164 28.3491
522 1 18.2243 2.02611 28.3491
523 1 18.2245 0.00128725 30.3741
524 1 16.1996 2.0261 30.3739
525 1 20.2491 0.00131817 28.3492
526 1 22.2739 2.02611 28.3491
527 1 22.2737 0.00128725 30.3741
528 1 20.2491 2.02588 30.3741
529 1 0.00135755 4.05091 28.3491
530 1 2.02613 6.07568 28.3491
531 1 2.02613 4.05091 30.3739
532 1 0.00135757 6.07568 30.3739
533 1 4.05091 4.05091 28.3491
534 1 6.07568 6.07568 28.3491
535 1 6.07568 4.05091 30.3739
536 1 4.05091 6.07568 30.3739
537 1 8.10045 4.05091 28.3491
538 1 10.1252 6.07568 28.3491
539 1 10.1252 4.05091 30.3739
540 1 8.10045 6.07568 30.3739
541 1 12.15 4.05091 28.3491
542 1 14.1748 6.07568 28.3491
543 1 14.1748 4.05091 30.3739
544 1 12.15 6.07568 30.3739
545 1 16.1995 4.05091 28.3491
546 1 18.2243 6.07568 28.3491
547 1 18.2243 4.05088 30.3739
548 1 16.1995 6.07568 30.3739
549 1 20.2491 4.0509 28.3491
550 1 22.2739 6.07568 28.3491
551 1 22.2739 4.05088 30.3739
552 1 20.2491 6.07568 30.3739
553 1 0.0013576 8.10045 28.3491
554 1 2.02613 10.1252 28.3491
555 1 2.02613 8.10045 30.3739
556 1 0.00135757 10.1252 30.3739
557 1 4.05091 8.10045 28.3491
558 1 6.07568 10.1252 28.3491
559 1 6.07568 8.10045 30.3739
560 1 4.05091 10.1252 30.3739
561 1 8.10045 8.10045 28.3491
562 1 10.1252 10.1252 28.3491
563 1 10.1252 8.10045 30.3739
564 1 8.10045 10.1252 30.3739
565 1 12.15 8.10045 28.3491
566 1 14.1748 10.1252 28.3491
567 1 14.1748 8.10045 30.3739
568 1 12.15 10.1252 30.3739
569 1 16.1995 8.10045 28.3491
570 1 18.2243 10.1252 28.3491
571 1 18.2243 8.10045 30.3739
572 1 16.1995 10.1252 30.3739
573 1 20.2491 8.10045 28.3491
574 1 22.2739 10.1252 28.3491
575 1 22.2739 8.10045 30.3739
576 1 20.2491 10.1252 30.3739
577 1 0.00121316 0.00121316 32.3988
578 1 2.0261 2.0261 32.3987
579 1 2.02592 0.00128725 34.4236
580 1 0.00128725 2.02592 34.4236
581 1 4.05089 0.00135164 32.3986
582 1 6.07568 2.02613 32.3986
583 1 6.07568 0.00135811 34.4234
584 1 4.05088 2.02611 34.4234
585 1 8.10045 0.00135751 32.3986
586 1 10.1252 2.02613 32.3986
587 1 10.1252 0.00135811 34.4234
588 1 8.10045 2.02613 34.4234
589 1 12.15 0.00135164 32.3986
590 1 14.1748 2.0261 32.3987
591 1 14.175 0.00128725 34.4236
592 1 12.15 2.02611 34.4234
593 1 16.1997 0.00121316 32.3988
594 1 18.2245 2.02592 32.3987
595 1 18.2212 0.00689035 34.4203
596 1 16.1996 2.02592 34.4236
597 1 20.2491 -0.00454422 32.4045
598 1 22.2737 2.02592 32.3987
599 1 22.277 0.00689035 34.4203
600 1 20.2491 2.02427 34.424
601 1 0.00135164 4.05089 32.3986
602 1 2.02613 6.07568 32.3986
603 1 2.02611 4.05088 34.4234
604 1 0.00135811 6.07568 34.4234
605 1 4.05091 4.05091 32.3986
606 1 6.07568 6.07568 32.3986
607 1 6.07568 4.05091 34.4234
608 1 4.05091 6.07568 34.4234
609 1 8.10045 4.05091 32.3986
610 1 10.1252 6.07568 32.3986
611 1 10.1252 4.05091 34.4234
612 1 8.10045 6.07568 34.4234
613 1 12.15 4.05091 32.3986
614 1 14.1748 6.07568 32.3986
615 1 14.1748 4.05088 34.4234
616 1 12.15 6.07568 34.4234
617 1 16.1996 4.05089 32.3986
618 1 18.2243 6.07568 32.3986
619 1 18.2244 4.05082 34.4235
620 1 16.1995 6.07568 34.4234
621 1 20.2491 4.05083 32.3987
622 1 22.2739 6.07568 32.3986
623 1 22.2738 4.05082 34.4235
624 1 20.2491 6.07567 34.4234
625 1 0.00135751 8.10045 32.3986
626 1 2.02613 10.1252 32.3986
627 1 2.02613 8.10045 34.4234
628 1 0.00135811 10.1252 34.4234
629 1 4.05091 8.10045 32.3986
630 1 6.07568 10.1252 32.3986
631 1 6.07568 8.10045 34.4234
632 1 4.05091 10.1252 34.4234
633 1 8.10045 8.10045 32.3986
634 1 10.1252 10.1252 32.3986
635 1 10.1252 8.10045 34.4234
636 1 8.10045 10.1252 34.4234
637 1 12.15 8.10045 32.3986
638 1 14.1748 10.1252 32.3986
639 1 14.1748 8.10045 34.4234
640 1 12.15 10.1252 34.4234
641 1 16.1995 8.10045 32.3986
642 1 18.2243 10.1252 32.3986
643 1 18.2243 8.10045 34.4234
644 1 16.1995 10.1252 34.4234
645 1 20.2491 8.10045 32.3986
646 1 22.2739 10.1252 32.3986
647 1 22.2739 8.10045 34.4234
648 1 20.2491 10.1252 34.4234
649 1 -0.00454422 -0.00454422 36.4482
650 1 2.02588 2.02588 36.4482
651 1 2.02592 0.00128725 38.4728
652 1 0.00128725 2.02592 38.4728
653 1 4.05083 0.00131817 36.4482
654 1 6.07568 2.02613 36.4482
655 1 6.07568 0.00135811 38.473
656 1 4.05088 2.02611 38.473
657 1 8.10045 0.00135747 36.4482
658 1 10.1252 2.02613 36.4482
659 1 10.1252 0.00135811 38.473
660 1 8.10045 2.02613 38.473
661 1 12.1501 0.00131817 36.4482
662 1 14.175 2.02588 36.4482
663 1 14.175 0.00128725 38.4728
664 1 12.15 2.02611 38.473
665 1 16.2054 -0.00454422 36.4482
666 1 18.2249 2.02427 36.4482
667 1 18.2212 0.00689035 38.4761
668 1 16.1996 2.02592 38.4728
669 1 20.2491 -0.0100931 36.4482
670 1 22.2733 2.02427 36.4482
671 1 22.277 0.00689035 38.4761
672 1 20.2491 2.02427 38.4724
673 1 0.00131817 4.05083 36.4482
674 1 2.02613 6.07568 36.4482
675 1 2.02611 4.05088 38.473
676 1 0.00135811 6.07568 38.473
677 1 4.0509 4.0509 36.4482
678 1 6.07568 6.07568 36.4482
679 1 6.07568 4.05091 38.473
680 1 4.05091 6.07568 38.473
681 1 8.10045 4.05091 36.4482
682 1 10.1252 6.07568 36.4482
683 1 10.1252 4.05091 38.473
684 1 8.10045 6.07568 38.473
685 1 12.15 4.0509 36.4482
686 1 14.1748 6.07568 36.4482
687 1 14.1748 4.05088 38.473
688 1 12.15 6.07568 38.473
689 1 16.1996 4.05083 36.4482
690 1 18.2243 6.07567 36.4482
691 1 18.2244 4.05082 38.4729
692 1 16.1995 6.07568 38.473
693 1 20.2491 4.05068 36.4482
694 1 22.2739 6.07567 36.4482
695 1 22.2738 4.05082 38.4729
696 1 20.2491 6.07567 38.473
697 1 0.00135747 8.10045 36.4482
698 1 2.02613 10.1252 36.4482
699 1 2.02613 8.10045 38.473
700 1 0.00135811 10.1252 38.473
701 1 4.05091 8.10045 36.4482
702 1 6.07568 10.1252 36.4482
703 1 6.07568 8.10045 38.473
704 1 4.05091 10.1252 38.473
705 1 8.10045 8.10045 36.4482
706 1 10.1252 10.1252 36.4482
707 1 10.1252 8.10045 38.473
708 1 8.10045 10.1252 38.473
709 1 12.15 8.10045 36.4482
710 1 14.1748 10.1252 36.4482
711 1 14.1748 8.10045 38.473
712 1 12.15 10.1252 38.473
713 1 16.1995 8.10045 36.4482
714 1 18.2243 10.1252 36.4482
715 1 18.2243 8.10045 38.473
716 1 16.1995 10.1252 38.473
717 1 20.2491 8.10045 36.4482
718 1 22.2739 10.1252 36.4482
719 1 22.2739 8.10045 38.473
720 1 20.2491 10.1252 38.473
721 1 0.00135164 12.15 0.00225672
722 1 2.0261 14.1748 0.00225078
723 1 2.02613 12.15 2.02704
724 1 0.0013457 14.1748 2.02701
725 1 4.05091 12.15 0.00226264
726 1 6.07568 14.1748 0.00226266
727 1 6.07568 12.15 2.02704
728 1 4.05091 14.1748 2.02704
729 1 8.10045 12.15 0.00226269
730 1 10.1252 14.1748 0.00226266
731 1 10.1252 12.15 2.02704
732 1 8.10045 14.1748 2.02704
733 1 12.15 12.15 0.00226264
734 1 14.1748 14.1748 0.00225078
735 1 14.1748 12.15 2.02704
736 1 12.15 14.1748 2.02704
737 1 16.1996 12.15 0.00225672
738 1 18.2245 14.175 0.00219233
739 1 18.2243 12.15 2.02702
740 1 16.1996 14.1748 2.02701
741 1 20.2491 12.1501 0.00222326
742 1 22.2737 14.175 0.00219233
743 1 22.2739 12.15 2.02702
744 1 20.2491 14.175 2.02679
745 1 0.00121316 16.1997 0.00211825
746 1 2.02592 18.2245 0.00219233
747 1 2.0261 16.1996 2.02701
748 1 0.00128725 18.2245 2.02683
749 1 4.05089 16.1996 0.00225672
750 1 6.07568 18.2243 0.0022632
751 1 6.07568 16.1995 2.02704
752 1 4.05088 18.2243 2.02702
753 1 8.10045 16.1995 0.0022626
754 1 10.1252 18.2243 0.0022632
755 1 10.1252 16.1995 2.02704
756 1 8.10045 18.2243 2.02704
757 1 12.15 16.1996 0.00225672
758 1 14.175 18.2245 0.00219233
759 1 14.1748 16.1996 2.02701
760 1 12.15 18.2243 2.02702
761 1 16.1997 16.1997 0.00211825
762 1 18.2212 18.2212 0.00779544
763 1 18.2245 16.1996 2.02683
764 1 16.1996 18.2245 2.02683
765 1 20.2491 16.2054 -0.00363913
766 1 22.277 18.2212 0.00779544
767 1 22.2737 16.1996 2.02683
768 1 20.2491 18.2249 2.02517
769 1 -0.00454422 20.2491 -0.00363913
770 1 2.02592 22.2737 0.00219233
771 1 2.02588 20.2491 2.02679
772 1 0.00128725 22.2737 2.02683
773 1 4.05083 20.2491 0.00222326
774 1 6.07568 22.2739 0.0022632
775 1 6.07568 20.2491 2.02704
776 1 4.05088 22.2739 2.02702
777 1 8.10045 20.2491 0.00226256
778 1 10.1252 22.2739 0.0022632
779 1 10.1252 20.2491 2.02704
780 1 8.10045 22.2739 2.02704
781 1 12.1501 20.2491 0.00222326
782 1 14.175 22.2737 0.00219233
783 1 14.175 20.2491 2.02679
784 1 12.15 22.2739 2.02702
785 1 16.2054 20.2491 -0.00363913
786 1 18.2212 22.277 0.00779544
787 1 18.2249 20.2491 2.02517
788 1 16.1996 22.2737 2.02683
789 1 20.2491 20.2491 -0.00918803
790 1 22.277 22.277 0.00779544
791 1 22.2733 20.2491 2.02517
792 1 20.2491 22.2733 2.02517
793 1 0.00135755 12.15 4.05181
794 1 2.02613 14.1748 4.05181
795 1 2.02613 12.15 6.07658
796 1 0.00135758 14.1748 6.07658
797 1 4.05091 12.15 4.05181
798 1 6.07568 14.1748 4.05181
799 1 6.07568 12.15 6.07658
800 1 4.05091 14.1748 6.07658
801 1 8.10045 12.15 4.05181
802 1 10.1252 14.1748 4.05181
803 1 10.1252 12.15 6.07658
804 1 8.10045 14.1748 6.07658
805 1 12.15 12.15 4.05181
806 1 14.1748 14.1748 4.05181
807 1 14.1748 12.15 6.07658
808 1 12.15 14.1748 6.07658
809 1 16.1995 12.15 4.05181
810 1 18.2243 14.1748 4.05179
811 1 18.2243 12.15 6.07658
812 1 16.1995 14.1748 6.07658
813 1 20.2491 12.15 4.05181
814 1 22.2739 14.1748 4.05179
815 1 22.2739 12.15 6.07658
816 1 20.2491 14.1748 6.07658
817 1 0.00135164 16.1996 4.0518
818 1 2.02611 18.2243 4.05179
819 1 2.02613 16.1995 6.07658
820 1 0.00135813 18.2243 6.07658
821 1 4.05091 16.1995 4.05181
822 1 6.07568 18.2243 4.05181
823 1 6.07568 16.1995 6.07658
824 1 4.05091 18.2243 6.07658
825 1 8.10045 16.1995 4.05181
826 1 10.1252 18.2243 4.05181
827 1 10.1252 16.1995 6.07658
828 1 8.10045 18.2243 6.07658
829 1 12.15 16.1995 4.05181
830 1 14.1748 18.2243 4.05179
831 1 14.1748 16.1995 6.07658
832 1 12.15 18.2243 6.07658
833 1 16.1996 16.1996 4.0518
834 1 18.2244 18.2244 4.05172
835 1 18.2243 16.1995 6.07658
836 1 16.1995 18.2243 6.07658
837 1 20.2491 16.1996 4.05173
838 1 22.2738 18.2244 4.05172
839 1 22.2739 16.1995 6.07658
840 1 20.2491 18.2243 6.07657
841 1 0.00131817 20.2491 4.05173
842 1 2.02611 22.2739 4.05179
843 1 2.02613 20.2491 6.07658
844 1 0.00135813 22.2739 6.07658
845 1 4.0509 20.2491 4.05181
846 1 6.07568 22.2739 4.05181
847 1 6.07568 20.2491 6.07658
848 1 4.05091 22.2739 6.07658
849 1 8.10045 20.2491 4.05181
850 1 10.1252 22.2739 4.05181
851 1 10.1252 20.2491 6.07658
852 1 8.10045 22.2739 6.07658
853 1 12.15 20.2491 4.05181
854 1 14.1748 22.2739 4.05179
855 1 14.1748 20.2491 6.07658
856 1 12.15 22.2739 6.07658
857 1 16.1996 20.2491 4.05173
858 1 18.2244 22.2738 4.05172
859 1 18.2243 20.2491 6.07657
860 1 16.1995 22.2739 6.07658
861 1 20.2491 20.2491 4.05158
862 1 22.2738 22.2738 4.05172
863 1 22.2739 20.2491 6.07657
864 1 20.2491 22.2739 6.07657
865 1 0.00135761 12.15 8.10136
866 1 2.02613 14.1748 8.10136
867 1 2.02613 12.15 10.1261
868 1 0.00135762 14.1748 10.1261
869 1 4.05091 12.15 8.10136
870 1 6.07568 14.1748 8.10136
871 1 6.07568 12.15 10.1261
872 1 4.05091 14.1748 10.1261
873 1 8.10045 12.15 8.10136
874 1 10.1252 14.1748 8.10136
875 1 10.1252 12.15 10.1261
876 1 8.10045 14.1748 10.1261
877 1 12.15 12.15 8.10136
878 1 14.1748 14.1748 8.10136
879 1 14.1748 12.15 10.1261
880 1 12.15 14.1748 10.1261
881 1 16.1995 12.15 8.10136
882 1 18.2243 14.1748 8.10136
883 1 18.2243 12.15 10.1261
884 1 16.1995 14.1748 10.1261
885 1 20.2491 12.15 8.10136
886 1 22.2739 14.1748 8.10136
887 1 22.2739 12.15 10.1261
888 1 20.2491 14.1748 10.1261
889 1 0.00135757 16.1995 8.10136
890 1 2.02613 18.2243 8.10136
891 1 2.02613 16.1995 10.1261
892 1 0.00135761 18.2243 10.1261
893 1 4.05091 16.1995 8.10136
894 1 6.07568 18.2243 8.10136
895 1 6.07568 16.1995 10.1261
896 1 4.05091 18.2243 10.1261
897 1 8.10045 16.1995 8.10136
898 1 10.1252 18.2243 8.10136
899 1 10.1252 16.1995 10.1261
900 1 8.10045 18.2243 10.1261
901 1 12.15 16.1995 8.10136
902 1 14.1748 18.2243 8.10136
903 1 14.1748 16.1995 10.1261
904 1 12.15 18.2243 10.1261
905 1 16.1995 16.1995 8.10136
906 1 18.2243 18.2243 8.10136
907 1 18.2243 16.1995 10.1261
908 1 16.1995 18.2243 10.1261
909 1 20.2491 16.1995 8.10136
910 1 22.2739 18.2243 8.10136
911 1 22.2739 16.1995 10.1261
912 1 20.2491 18.2243 10.1261
913 1 0.00135755 20.2491 8.10136
914 1 2.02613 22.2739 8.10136
915 1 2.02613 20.2491 10.1261
916 1 0.00135761 22.2739 10.1261
917 1 4.05091 20.2491 8.10136
918 1 6.07568 22.2739 8.10136
919 1 6.07568 20.2491 10.1261
920 1 4.05091 22.2739 10.1261
921 1 8.10045 20.2491 8.10136
922 1 10.1252 22.2739 8.10136
923 1 10.1252 20.2491 10.1261
924 1 8.10045 22.2739 10.1261
925 1 12.15 20.2491 8.10136
926 1 14.1748 22.2739 8.10136
927 1 14.1748 20.2491 10.1261
928 1 12.15 22.2739 10.1261
929 1 16.1995 20.2491 8.10136
930 1 18.2243 22.2739 8.10136
931 1 18.2243 20.2491 10.1261
932 1 16.1995 22.2739 10.1261
933 1 20.2491 20.2491 8.10136
934 1 22.2739 22.2739 8.10136
935 1 22.2739 20.2491 10.1261
936 1 20.2491 22.2739 10.1261
937 1 0.00135763 12.15 12.1509
938 1 2.02613 14.1748 12.1509
939 1 2.02613 12.15 14.1757
940 1 0.00135763 14.1748 14.1757
941 1 4.05091 12.15 12.1509
942 1 6.07568 14.1748 12.1509
943 1 6.07568 12.15 14.1757
944 1 4.05091 14.1748 14.1757
945 1 8.10045 12.15 12.1509
946 1 10.1252 14.1748 12.1509
947 1 10.1252 12.15 14.1757
948 1 8.10045 14.1748 14.1757
949 1 12.15 12.15 12.1509
950 1 14.1748 14.1748 12.1509
951 1 14.1748 12.15 14.1757
952 1 12.15 14.1748 14.1757
953 1 16.1995 12.15 12.1509
954 1 18.2243 14.1748 12.1509
955 1 18.2243 12.15 14.1757
956 1 16.1995 14.1748 14.1757
957 1 20.2491 12.15 12.1509
958 1 22.2739 14.1748 12.1509
959 1 22.2739 12.15 14.1757
960 1 20.2491 14.1748 14.1757
961 1 0.00135763 16.1995 12.1509
962 1 2.02613 18.2243 12.1509
963 1 2.02613 16.1995 14.1757
964 1 0.00135763 18.2243 14.1757
965 1 4.05091 16.1995 12.1509
966 1 6.07568 18.2243 12.1509
967 1 6.07568 16.1995 14.1757
968 1 4.05091 18.2243 14.1757
969 1 8.10045 16.1995 12.1509
970 1 10.1252 18.2243 12.1509
971 1 10.1252 16.1995 14.1757
972 1 8.10045 18.2243 14.1757
973 1 12.15 16.1995 12.1509
974 1 14.1748 18.2243 12.1509
975 1 14.1748 16.1995 14.1757
976 1 12.15 18.2243 14.1757
977 1 16.1995 16.1995 12.1509
978 1 18.2243 18.2243 12.1509
979 1 18.2243 16.1995 14.1757
980 1 16.1995 18.2243 14.1757
981 1 20.2491 16.1995 12.1509