ITEM: TIMESTEP
0
ITEM: NUMBER OF ATOMS
2047
ITEM: BOX BOUNDS pp pp pp
1.2661034852519465e-03 3.2398733896514749e+01
1.2661034852519465e-03 3.2398733896514749e+01
1.2661034852519465e-03 3.2398733896514749e+01
ITEM: ATOMS id type xu yu zu
1 1 0.0012661 0.0012661 0.0012661
2 1 2.02611 2.02611 0.0012661
3 1 2.02611 0.0012661 2.02611
4 1 0.0012661 2.02611 2.02611
5 1 4.05095 0.0012661 0.0012661
6 1 6.07579 2.02611 0.0012661
7 1 6.07579 0.0012661 2.02611
8 1 4.05095 2.02611 2.02611
9 1 8.10063 0.0012661 0.0012661
10 1 10.1255 2.02611 0.0012661
11 1 10.1255 0.0012661 2.02611
12 1 8.10063 2.02611 2.02611
13 1 12.1503 0.0012661 0.0012661
14 1 14.1752 2.02611 0.0012661
15 1 14.1752 0.0012661 2.02611
16 1 12.1503 2.02611 2.02611
17 1 0.0012661 4.05095 0.0012661
18 1 2.02611 6.07579 0.0012661
19 1 2.02611 4.05095 2.02611
20 1 0.0012661 6.07579 2.02611
21 1 4.05095 4.05095 0.0012661
22 1 6.07579 6.07579 0.0012661
23 1 6.07579 4.05095 2.02611
24 1 4.05095 6.07579 2.02611
25 1 8.10063 4.05095 0.0012661
26 1 10.1255 6.07579 0.0012661
27 1 10.1255 4.05095 2.02611
28 1 8.10063 6.07579 2.02611
29 1 12.1503 4.05095 0.0012661
30 1 14.1752 6.07579 0.0012661
31 1 14.1752 4.05095 2.02611
32 1 12.1503 6.07579 2.02611
33 1 0.0012661 8.10063 0.0012661
34 1 2.02611 10.1255 0.0012661
35 1 2.02611 8.10063 2.02611
36 1 0.0012661 10.1255 2.02611
37 1 4.05095 8.10063 0.0012661
38 1 6.07579 10.1255 0.0012661
39 1 6.07579 8.10063 2.02611
40 1 4.05095 10.1255 2.02611
41 1 8.10063 8.10063 0.0012661
42 1 10.1255 10.1255 0.0012661
43 1 10.1255 8.10063 2.02611
44 1 8.10063 10.1255 2.02611
45 1 12.1503 8.10063 0.0012661
46 1 14.1752 10.1255 0.0012661
47 1 14.1752 8.10063 2.02611
48 1 12.1503 10.1255 2.02611
49 1 0.0012661 12.1503 0.0012661
50 1 2.02611 14.1752 0.0012661
51 1 2.02611 12.1503 2.02611
52 1 0.0012661 14.1752 2.02611
53 1 4.05095 12.1503 0.0012661
54 1 6.07579 14.1752 0.0012661
55 1 6.07579 12.1503 2.02611
56 1 4.05095 14.1752 2.02611
57 1 8.10063 12.1503 0.0012661
58 1 10.1255 14.1752 0.0012661
59 1 10.1255 12.1503 2.02611
60 1 8.10063 14.1752 2.02611
61 1 12.1503 12.1503 0.0012661
62 1 14.1752 14.1752 0.0012661
63 1 14.1752 12.1503 2.02611
64 1 12.1503 14.1752 2.02611
65 1 0.0012661 16.2 0.0012661
66 1 2.02611 18.2248 0.0012661
67 1 2.02611 16.2 2.02611
68 1 0.0012661 18.2248 2.02611
69 1 4.05095 16.2 0.0012661
70 1 6.07579 18.2248 0.0012661
71 1 6.07579 16.2 2.02611
72 1 4.05095 18.2248 2.02611
73 1 8.10063 16.2 0.0012661
74 1 10.1255 18.2248 0.0012661
75 1 10.1255 16.2 2.02611
76 1 8.10063 18.2248 2.02611
77 1 12.1503 16.2 0.0012661
78 1 14.1752 18.2248 0.0012661
79 1 14.1752 16.2 2.02611
80 1 12.1503 18.2248 2.02611
81 1 0.0012661 20.2497 0.0012661
82 1 2.02611 22.2745 0.0012661
83 1 2.02611 20.2497 2.02611
84 1 0.0012661 22.2745 2.02611
85 1 4.05095 20.2497 0.0012661
86 1 6.07579 22.2745 0.0012661
87 1 6.07579 20.2497 2.02611
88 1 4.05095 22.2745 2.02611
89 1 8.10063 20.2497 0.0012661
90 1 10.1255 22.2745 0.0012661
91 1 10.1255 20.2497 2.02611
92 1 8.10063 22.2745 2.02611
93 1 12.1503 20.2497 0.0012661
94 1 14.1752 22.2745 0.0012661
95 1 14.1752 20.2497 2.02611
96 1 12.1503 22.2745 2.02611
97 1 0.0012661 24.2994 0.0012661
98 1 2.02611 26.3242 0.0012661
99 1 2.02611 24.2994 2.02611
100 1 0.0012661 26.3242 2.02611
101 1 4.05095 24.2994 0.0012661
102 1 6.07579 26.3242 0.0012661
103 1 6.07579 24.2994 2.02611
104 1 4.05095 26.3242 2.02611
105 1 8.10063 24.2994 0.0012661
106 1 10.1255 26.3242 0.0012661
107 1 10.1255 24.2994 2.02611
108 1 8.10063 26.3242 2.02611
109 1 12.1503 24.2994 0.0012661
110 1 14.1752 26.3242 0.0012661
111 1 14.1752 24.2994 2.02611
112 1 12.1503 26.3242 2.02611
113 1 0.0012661 28.3491 0.0012661
114 1 2.02611 30.3739 0.0012661
115 1 2.02611 28.3491 2.02611
116 1 0.0012661 30.3739 2.02611
117 1 4.05095 28.3491 0.0012661
118 1 6.07579 30.3739 0.0012661
119 1 6.07579 28.3491 2.02611
120 1 4.05095 30.3739 2.02611
121 1 8.10063 28.3491 0.0012661
122 1 10.1255 30.3739 0.0012661
123 1 10.1255 28.3491 2.02611
124 1 8.10063 30.3739 2.02611
125 1 12.1503 28.3491 0.0012661
126 1 14.1752 30.3739 0.0012661
127 1 14.1752 28.3491 2.02611
128 1 12.1503 30.3739 2.02611
129 1 0.0012661 0.0012661 4.05095
130 1 2.02611 2.02611 4.05095
131 1 2.02611 0.0012661 6.07579
132 1 0.0012661 2.02611 6.07579
133 1 4.05095 0.0012661 4.05095
134 1 6.07579 2.02611 4.05095
135 1 6.07579 0.0012661 6.07579
136 1 4.05095 2.02611 6.07579
137 1 8.10063 0.0012661 4.05095
138 1 10.1255 2.02611 4.05095
139 1 10.1255 0.0012661 6.07579
140 1 8.10063 2.02611 6.07579
141 1 12.1503 0.0012661 4.05095
142 1 14.1752 2.02611 4.05095
143 1 14.1752 0.0012661 6.07579
144 1 12.1503 2.02611 6.07579
145 1 0.0012661 4.05095 4.05095
146 1 2.02611 6.07579 4.05095
147 1 2.02611 4.05095 6.07579
148 1 0.0012661 6.07579 6.07579
149 1 4.05095 4.05095 4.05095
150 1 6.07579 6.07579 4.05095
151 1 6.07579 4.05095 6.07579
152 1 4.05095 6.07579 6.07579
153 1 8.10063 4.05095 4.05095
154 1 10.1255 6.07579 4.05095
155 1 10.1255 4.05095 6.07579
156 1 8.10063 6.07579 6.07579
157 1 12.1503 4.05095 4.05095
158 1 14.1752 6.07579 4.05095
159 1 14.1752 4.05095 6.07579
160 1 12.1503 6.07579 6.07579
161 1 0.0012661 8.10063 4.05095
162 1 2.02611 10.1255 4.05095
163 1 2.02611 8.10063 6.07579
164 1 0.0012661 10.1255 6.07579
165 1 4.05095 8.10063 4.05095
166 1 6.07579 10.1255 4.05095
167 1 6.07579 8.10063 6.07579
168 1 4.05095 10.1255 6.07579
169 1 8.10063 8.10063 4.05095
170 1 10.1255 10.1255 4.05095
171 1 10.1255 8.10063 6.07579
172 1 8.10063 10.1255 6.07579
173 1 12.1503 8.10063 4.05095
174 1 14.1752 10.1255 4.05095
175 1 14.1752 8.10063 6.07579
176 1 12.1503 10.1255 6.07579
177 1 0.0012661 12.1503 4.05095
178 1 2.02611 14.1752 4.05095
179 1 2.02611 12.1503 6.07579
180 1 0.0012661 14.1752 6.07579
181 1 4.05095 12.1503 4.05095
182 1 6.07579 14.1752 4.05095
183 1 6.07579 12.1503 6.07579
184 1 4.05095 14.1752 6.07579
185 1 8.10063 12.1503 4.05095
186 1 10.1255 14.1752 4.05095
187 1 10.1255 12.1503 6.07579
188 1 8.10063 14.1752 6.07579
189 1 12.1503 12.1503 4.05095
190 1 14.1752 14.1752 4.05095
191 1 14.1752 12.1503 6.07579
192 1 12.1503 14.1752 6.07579
193 1 0.0012661 16.2 4.05095
194 1 2.02611 18.2248 4.05095
195 1 2.02611 16.2 6.07579
196 1 0.0012661 18.2248 6.07579
197 1 4.05095 16.2 4.05095
198 1 6.07579 18.2248 4.05095
199 1 6.07579 16.2 6.07579
200 1 4.05095 18.2248 6.07579
201 1 8.10063 16.2 4.05095
202 1 10.1255 18.2248 4.05095
203 1 10.1255 16.2 6.07579
204 1 8.10063 18.2248 6.07579
205 1 12.1503 16.2 4.05095
206 1 14.1752 18.2248 4.05095
207 1 14.1752 16.2 6.07579
208 1 12.1503 18.2248 6.07579
209 1 0.0012661 20.2497 4.05095
210 1 2.02611 22.2745 4.05095
211 1 2.02611 20.2497 6.07579
212 1 0.0012661 22.2745 6.07579
213 1 4.05095 20.2497 4.05095
214 1 6.07579 22.2745 4.05095
215 1 6.07579 20.2497 6.07579
216 1 4.05095 22.2745 6.07579
217 1 8.10063 20.2497 4.05095
218 1 10.1255 22.2745 4.05095
219 1 10.1255 20.2497 6.07579
220 1 8.10063 22.2745 6.07579
221 1 12.1503 20.2497 4.05095
222 1 14.1752 22.2745 4.05095
223 1 14.1752 20.2497 6.07579
224 1 12.1503 22.2745 6.07579
225 1 0.0012661 24.2994 4.05095
226 1 2.02611 26.3242 4.05095
227 1 2.02611 24.2994 6.07579
228 1 0.0012661 26.3242 6.07579
229 1 4.05095 24.2994 4.05095
230 1 6.07579 26.3242 4.05095
231 1 6.07579 24.2994 6.07579
232 1 4.05095 26.3242 6.07579
233 1 8.10063 24.2994 4.05095
234 1 10.1255 26.3242 4.05095
235 1 10.1255 24.2994 6.07579
236 1 8.10063 26.3242 6.07579
237 1 12.1503 24.2994 4.05095
238 1 14.1752 26.3242 4.05095
239 1 14.1752 24.2994 6.07579
240 1 12.1503 26.3242 6.07579
241 1 0.0012661 28.3491 4.05095
242 1 2.02611 30.3739 4.05095
243 1 2.02611 28.3491 6.07579
244 1 0.0012661 30.3739 6.07579
245 1 4.05095 28.3491 4.05095
246 1 6.07579 30.3739 4.05095
247 1 6.07579 28.3491 6.07579
248 1 4.05095 30.3739 6.07579
249 1 8.10063 28.3491 4.05095
250 1 10.1255 30.3739 4.05095
251 1 10.1255 28.3491 6.07579
252 1 8.10063 30.3739 6.07579
253 1 12.1503 28.3491 4.05095
254 1 14.1752 30.3739 4.05095
255 1 14.1752 28.3491 6.07579
256 1 12.1503 30.3739 6.07579
257 1 0.0012661 0.0012661 8.10063
258 1 2.02611 2.02611 8.10063
259 1 2.02611 0.0012661 10.1255
260 1 0.0012661 2.02611 10.1255
261 1 4.05095 0.0012661 8.10063
262 1 6.07579 2.02611 8.10063
263 1 6.07579 0.0012661 10.1255
264 1 4.05095 2.02611 10.1255
265 1 8.10063 0.0012661 8.10063
266 1 10.1255 2.02611 8.10063
267 1 10.1255 0.0012661 10.1255
268 1 8.10063 2.02611 10.1255
269 1 12.1503 0.0012661 8.10063
270 1 14.1752 2.02611 8.10063
271 1 14.1752 0.0012661 10.1255
272 1 12.1503 2.02611 10.1255
273 1 0.0012661 4.05095 8.10063
274 1 2.02611 6.07579 8.10063
275 1 2.02611 4.05095 10.1255
276 1 0.0012661 6.07579 10.1255
277 1 4.05095 4.05095 8.10063
278 1 6.07579 6.07579 8.10063
279 1 6.07579 4.05095 10.1255
280 1 4.05095 6.07579 10.1255
281 1 8.10063 4.05095 8.10063
282 1 10.1255 6.07579 8.10063
283 1 10.1255 4.05095 10.1255
284 1 8.10063 6.07579 10.1255
285 1 12.1503 4.05095 8.10063
286 1 14.1752 6.07579 8.10063
287 1 14.1752 4.05095 10.1255
288 1 12.1503 6.07579 10.1255
289 1 0.0012661 8.10063 8.10063
290 1 2.02611 10.1255 8.10063
291 1 2.02611 8.10063 10.1255
292 1 0.0012661 10.1255 10.1255
293 1 4.05095 8.10063 8.10063
294 1 6.07579 10.1255 8.10063
295 1 6.07579 8.10063 10.1255
296 1 4.05095 10.1255 10.1255
297 1 8.10063 8.10063 8.10063
298 1 10.1255 10.1255 8.10063
299 1 10.1255 8.10063 10.1255
300 1 8.10063 10.1255 10.1255
301 1 12.1503 8.10063 8.10063
302 1 14.1752 10.1255 8.10064
303 1 14.1752 8.10064 10.1255
304 1 12.1503 10.1255 10.1255
305 1 0.0012661 12.1503 8.10063
306 1 2.02611 14.1752 8.10063
307 1 2.02611 12.1503 10.1255
308 1 0.0012661 14.1752 10.1255
309 1 4.05095 12.1503 8.10063
310 1 6.07579 14.1752 8.10063
311 1 6.07579 12.1503 10.1255
312 1 4.05095 14.1752 10.1255
313 1 8.10063 12.1503 8.10063
314 1 10.1255 14.1752 8.10064
315 1 10.1255 12.1503 10.1255
316 1 8.10064 14.1752 10.1255
317 1 12.1503 12.1503 8.10064
318 1 14.1752 14.1752 8.10069
319 1 14.1753 12.1505 10.1257
320 1 12.1505 14.1753 10.1257
321 1 0.0012661 16.2 8.10063
322 1 2.02611 18.2248 8.10063
323 1 2.02611 16.2 10.1255
324 1 0.0012661 18.2248 10.1255
325 1 4.05095 16.2 8.10063
326 1 6.07579 18.2248 8.10063
327 1 6.07579 16.2 10.1255
328 1 4.05095 18.2248 10.1255
329 1 8.10063 16.2 8.10063
330 1 10.1255 18.2248 8.10064
331 1 10.1257 16.2 10.1257
332 1 8.10064 18.2248 10.1255
333 1 12.1503 16.2 8.10068
334 1 14.1752 18.2248 8.10069
335 1 14.1756 16.2 10.1271
336 1 12.1505 18.2247 10.1257
337 1 0.0012661 20.2497 8.10063
338 1 2.02611 22.2745 8.10063
339 1 2.02611 20.2497 10.1255
340 1 0.0012661 22.2745 10.1255
341 1 4.05095 20.2497 8.10063
342 1 6.07579 22.2745 8.10063
343 1 6.07579 20.2497 10.1255
344 1 4.05095 22.2745 10.1255
345 1 8.10063 20.2497 8.10063
346 1 10.1255 22.2745 8.10063
347 1 10.1255 20.2497 10.1255
348 1 8.10063 22.2745 10.1255
349 1 12.1503 20.2497 8.10064
350 1 14.1752 22.2745 8.10064
351 1 14.1753 20.2495 10.1257
352 1 12.1503 22.2745 10.1255
353 1 0.0012661 24.2994 8.10063
354 1 2.02611 26.3242 8.10063
355 1 2.02611 24.2994 10.1255
356 1 0.0012661 26.3242 10.1255
357 1 4.05095 24.2994 8.10063
358 1 6.07579 26.3242 8.10063
359 1 6.07579 24.2994 10.1255
360 1 4.05095 26.3242 10.1255
361 1 8.10063 24.2994 8.10063
362 1 10.1255 26.3242 8.10063
363 1 10.1255 24.2994 10.1255
364 1 8.10063 26.3242 10.1255
365 1 12.1503 24.2994 8.10063
366 1 14.1752 26.3242 8.10063
367 1 14.1752 24.2994 10.1255
368 1 12.1503 26.3242 10.1255
369 1 0.0012661 28.3491 8.10063
370 1 2.02611 30.3739 8.10063
371 1 2.02611 28.3491 10.1255
372 1 0.0012661 30.3739 10.1255
373 1 4.05095 28.3491 8.10063
374 1 6.07579 30.3739 8.10063
375 1 6.07579 28.3491 10.1255
376 1 4.05095 30.3739 10.1255
377 1 8.10063 28.3491 8.10063
378 1 10.1255 30.3739 8.10063
379 1 10.1255 28.3491 10.1255
380 1 8.10063 30.3739 10.1255
381 1 12.1503 28.3491 8.10063
382 1 14.1752 30.3739 8.10063
383 1 14.1752 28.3491 10.1255
384 1 12.1503 30.3739 10.1255
385 1 0.0012661 0.0012661 12.1503
386 1 2.02611 2.02611 12.1503
387 1 2.02611 0.0012661 14.1752
388 1 0.0012661 2.02611 14.1752
389 1 4.05095 0.0012661 12.1503
390 1 6.07579 2.02611 12.1503
391 1 6.07579 0.0012661 14.1752
392 1 4.05095 2.02611 14.1752
393 1 8.10063 0.0012661 12.1503
394 1 10.1255 2.02611 12.1503
395 1 10.1255 0.0012661 14.1752
396 1 8.10063 2.02611 14.1752
397 1 12.1503 0.0012661 12.1503
398 1 14.1752 2.02611 12.1503
399 1 14.1752 0.0012661 14.1752
400 1 12.1503 2.02611 14.1752
401 1 0.0012661 4.05095 12.1503
402 1 2.02611 6.07579 12.1503
403 1 2.02611 4.05095 14.1752
404 1 0.0012661 6.07579 14.1752
405 1 4.05095 4.05095 12.1503
406 1 6.07579 6.07579 12.1503
407 1 6.07579 4.05095 14.1752
408 1 4.05095 6.07579 14.1752
409 1 8.10063 4.05095 12.1503
410 1 10.1255 6.07579 12.1503
411 1 10.1255 4.05095 14.1752
412 1 8.10063 6.07579 14.1752
413 1 12.1503 4.05095 12.1503
414 1 14.1752 6.07579 12.1503
415 1 14.1752 4.05095 14.1752
416 1 12.1503 6.07579 14.1752
417 1 0.0012661 8.10063 12.1503
418 1 2.02611 10.1255 12.1503
419 1 2.02611 8.10063 14.1752
420 1 0.0012661 10.1255 14.1752
421 1 4.05095 8.10063 12.1503
422 1 6.07579 10.1255 12.1503
423 1 6.07579 8.10063 14.1752
424 1 4.05095 10.1255 14.1752
425 1 8.10063 8.10063 12.1503
426 1 10.1255 10.1255 12.1503
427 1 10.1255 8.10064 14.1752
428 1 8.10064 10.1255 14.1752
429 1 12.1503 8.10064 12.1503
430 1 14.1753 10.1257 12.1505
431 1 14.1752 8.10069 14.1752
432 1 12.1505 10.1257 14.1753
433 1 0.0012661 12.1503 12.1503
434 1 2.02611 14.1752 12.1503
435 1 2.02611 12.1503 14.1752
436 1 0.0012661 14.1752 14.1752
437 1 4.05095 12.1503 12.1503
438 1 6.07579 14.1752 12.1503
439 1 6.07579 12.1503 14.1752
440 1 4.05095 14.1752 14.1752
441 1 8.10064 12.1503 12.1503
442 1 10.1257 14.1753 12.1505
443 1 10.1257 12.1505 14.1753
444 1 8.10069 14.1752 14.1752
445 1 12.1506 12.1506 12.1506
446 1 14.1719 14.1719 12.1444
447 1 14.1719 12.1444 14.1719
448 1 12.1444 14.1719 14.1719
449 1 0.0012661 16.2 12.1503
450 1 2.02611 18.2248 12.1503
451 1 2.02611 16.2 14.1752
452 1 0.0012661 18.2248 14.1752
453 1 4.05095 16.2 12.1503
454 1 6.07579 18.2248 12.1503
455 1 6.07579 16.2 14.1752
456 1 4.05095 18.2248 14.1752
457 1 8.10068 16.2 12.1503
458 1 10.1257 18.2247 12.1505
459 1 10.1271 16.2 14.1756
460 1 8.10069 18.2248 14.1752
461 1 12.1553 16.2 12.1553
462 1 14.1719 18.2281 12.1444
463 1 14.2093 16.2 14.2093
464 1 12.1444 18.2281 14.1719
465 1 0.0012661 20.2497 12.1503
466 1 2.02611 22.2745 12.1503
467 1 2.02611 20.2497 14.1752
468 1 0.0012661 22.2745 14.1752
469 1 4.05095 20.2497 12.1503
470 1 6.07579 22.2745 12.1503
471 1 6.07579 20.2497 14.1752
472 1 4.05095 22.2745 14.1752
473 1 8.10064 20.2497 12.1503
474 1 10.1255 22.2745 12.1503
475 1 10.1257 20.2495 14.1753
476 1 8.10064 22.2745 14.1752
477 1 12.1506 20.2494 12.1506
478 1 14.1753 22.2743 12.1505
479 1 14.1719 20.2556 14.1719
480 1 12.1505 22.2743 14.1753
481 1 0.0012661 24.2994 12.1503
482 1 2.02611 26.3242 12.1503
483 1 2.02611 24.2994 14.1752
484 1 0.0012661 26.3242 14.1752
485 1 4.05095 24.2994 12.1503
486 1 6.07579 26.3242 12.1503
487 1 6.07579 24.2994 14.1752
488 1 4.05095 26.3242 14.1752
489 1 8.10063 24.2994 12.1503
490 1 10.1255 26.3242 12.1503
491 1 10.1255 24.2994 14.1752
492 1 8.10063 26.3242 14.1752
493 1 12.1503 24.2994 12.1503
494 1 14.1752 26.3242 12.1503
495 1 14.1752 24.2993 14.1752
496 1 12.1503 26.3242 14.1752
497 1 0.0012661 28.3491 12.1503
498 1 2.02611 30.3739 12.1503
499 1 2.02611 28.3491 14.1752
500 1 0.0012661 30.3739 14.1752
501 1 4.05095 28.3491 12.1503
502 1 6.07579 30.3739 12.1503
503 1 6.07579 28.3491 14.1752
504 1 4.05095 30.3739 14.1752
505 1 8.10063 28.3491 12.1503
506 1 10.1255 30.3739 12.1503
507 1 10.1255 28.3491 14.1752
508 1 8.10063 30.3739 14.1752
509 1 12.1503 28.3491 12.1503
510 1 14.1752 30.3739 12.1503
511 1 14.1752 28.3491 14.1752
512 1 12.1503 30.3739 14.1752
513 1 0.0012661 0.0012661 16.2
514 1 2.02611 2.02611 16.2
515 1 2.02611 0.0012661 18.2248
516 1 0.0012661 2.02611 18.2248
517 1 4.05095 0.0012661 16.2
518 1 6.07579 2.02611 16.2
519 1 6.07579 0.0012661 18.2248
520 1 4.05095 2.02611 18.2248
521 1 8.10063 0.0012661 16.2
522 1 10.1255 2.02611 16.2
523 1 10.1255 0.0012661 18.2248
524 1 8.10063 2.02611 18.2248
525 1 12.1503 0.0012661 16.2
526 1 14.1752 2.02611 16.2
527 1 14.1752 0.0012661 18.2248
528 1 12.1503 2.02611 18.2248
529 1 0.0012661 4.05095 16.2
530 1 2.02611 6.07579 16.2
531 1 2.02611 4.05095 18.2248
532 1 0.0012661 6.07579 18.2248
533 1 4.05095 4.05095 16.2
534 1 6.07579 6.07579 16.2
535 1 6.07579 4.05095 18.2248
536 1 4.05095 6.07579 18.2248
537 1 8.10063 4.05095 16.2
538 1 10.1255 6.07579 16.2
539 1 10.1255 4.05095 18.2248
540 1 8.10063 6.07579 18.2248
541 1 12.1503 4.05095 16.2
542 1 14.1752 6.07579 16.2
543 1 14.1752 4.05095 18.2248
544 1 12.1503 6.07579 18.2248
545 1 0.0012661 8.10063 16.2
546 1 2.02611 10.1255 16.2
547 1 2.02611 8.10063 18.2248
548 1 0.0012661 10.1255 18.2248
549 1 4.05095 8.10063 16.2
550 1 6.07579 10.1255 16.2
551 1 6.07579 8.10063 18.2248
552 1 4.05095 10.1255 18.2248
553 1 8.10063 8.10063 16.2
554 1 10.1257 10.1257 16.2
555 1 10.1255 8.10064 18.2248
556 1 8.10064 10.1255 18.2248
557 1 12.1503 8.10068 16.2
558 1 14.1756 10.1271 16.2
559 1 14.1752 8.10069 18.2248
560 1 12.1505 10.1257 18.2247
561 1 0.0012661 12.1503 16.2
562 1 2.02611 14.1752 16.2
563 1 2.02611 12.1503 18.2248
564 1 0.0012661 14.1752 18.2248
565 1 4.05095 12.1503 16.2
566 1 6.07579 14.1752 16.2
567 1 6.07579 12.1503 18.2248
568 1 4.05095 14.1752 18.2248
569 1 8.10068 12.1503 16.2
570 1 10.1271 14.1756 16.2
571 1 10.1257 12.1505 18.2247
572 1 8.10069 14.1752 18.2248
573 1 12.1553 12.1553 16.2
574 1 14.2093 14.2093 16.2
575 1 14.1719 12.1444 18.2281
576 1 12.1444 14.1719 18.2281
577 1 0.0012661 16.2 16.2
578 1 2.02611 18.2248 16.2
579 1 2.02611 16.2 18.2248
580 1 0.0012661 18.2248 18.2248
581 1 4.05095 16.2 16.2
582 1 6.07579 18.2248 16.2
583 1 6.07579 16.2 18.2248
584 1 4.05095 18.2248 18.2248
585 1 8.10079 16.2 16.2
586 1 10.1271 18.2244 16.2
587 1 10.1271 16.2 18.2244
588 1 8.10069 18.2248 18.2248
589 1 12.1611 16.2 16.2
590 1 14.2093 18.1907 16.2
591 1 14.2093 16.2 18.1907
592 1 12.1444 18.2281 18.2281
593 1 0.0012661 20.2497 16.2
594 1 2.02611 22.2745 16.2
595 1 2.02611 20.2497 18.2248
596 1 0.0012661 22.2745 18.2248
597 1 4.05095 20.2497 16.2
598 1 6.07579 22.2745 16.2
599 1 6.07579 20.2497 18.2248
600 1 4.05095 22.2745 18.2248
601 1 8.10068 20.2497 16.2
602 1 10.1257 22.2743 16.2
603 1 10.1257 20.2495 18.2247
604 1 8.10064 22.2745 18.2248
605 1 12.1553 20.2447 16.2
606 1 14.1756 22.2729 16.2
607 1 14.1719 20.2556 18.2281
608 1 12.1505 22.2743 18.2247
609 1 0.0012661 24.2994 16.2
610 1 2.02611 26.3242 16.2
611 1 2.02611 24.2994 18.2248
612 1 0.0012661 26.3242 18.2248
613 1 4.05095 24.2994 16.2
614 1 6.07579 26.3242 16.2
615 1 6.07579 24.2994 18.2248
616 1 4.05095 26.3242 18.2248
617 1 8.10063 24.2994 16.2
618 1 10.1255 26.3242 16.2
619 1 10.1255 24.2994 18.2248
620 1 8.10063 26.3242 18.2248
621 1 12.1503 24.2993 16.2
622 1 14.1752 26.3242 16.2
623 1 14.1752 24.2993 18.2248
624 1 12.1503 26.3242 18.2248
625 1 0.0012661 28.3491 16.2
626 1 2.02611 30.3739 16.2
627 1 2.02611 28.3491 18.2248
628 1 0.0012661 30.3739 18.2248
629 1 4.05095 28.3491 16.2
630 1 6.07579 30.3739 16.2
631 1 6.07579 28.3491 18.2248
632 1 4.05095 30.3739 18.2248
633 1 8.10063 28.3491 16.2
634 1 10.1255 30.3739 16.2
635 1 10.1255 28.3491 18.2248
636 1 8.10063 30.3739 18.2248
637 1 12.1503 28.3491 16.2
638 1 14.1752 30.3739 16.2
639 1 14.1752 28.3491 18.2248
640 1 12.1503 30.3739 18.2248
641 1 0.0012661 0.0012661 20.2497
642 1 2.02611 2.02611 20.2497
643 1 2.02611 0.0012661 22.2745
644 1 0.0012661 2.02611 22.2745
645 1 4.05095 0.0012661 20.2497
646 1 6.07579 2.02611 20.2497
647 1 6.07579 0.0012661 22.2745
648 1 4.05095 2.02611 22.2745
649 1 8.10063 0.0012661 20.2497
650 1 10.1255 2.02611 20.2497
651 1 10.1255 0.0012661 22.2745
652 1 8.10063 2.02611 22.2745
653 1 12.1503 0.0012661 20.2497
654 1 14.1752 2.02611 20.2497
655 1 14.1752 0.0012661 22.2745
656 1 12.1503 2.02611 22.2745
657 1 0.0012661 4.05095 20.2497
658 1 2.02611 6.07579 20.2497
659 1 2.02611 4.05095 22.2745
660 1 0.0012661 6.07579 22.2745
661 1 4.05095 4.05095 20.2497
662 1 6.07579 6.07579 20.2497
663 1 6.07579 4.05095 22.2745
664 1 4.05095 6.07579 22.2745
665 1 8.10063 4.05095 20.2497
666 1 10.1255 6.07579 20.2497
667 1 10.1255 4.05095 22.2745
668 1 8.10063 6.07579 22.2745
669 1 12.1503 4.05095 20.2497
670 1 14.1752 6.07579 20.2497
671 1 14.1752 4.05095 22.2745
672 1 12.1503 6.07579 22.2745
673 1 0.0012661 8.10063 20.2497
674 1 2.02611 10.1255 20.2497
675 1 2.02611 8.10063 22.2745
676 1 0.0012661 10.1255 22.2745
677 1 4.05095 8.10063 20.2497
678 1 6.07579 10.1255 20.2497
679 1 6.07579 8.10063 22.2745
680 1 4.05095 10.1255 22.2745
681 1 8.10063 8.10063 20.2497
682 1 10.1255 10.1255 20.2497
683 1 10.1255 8.10063 22.2745
684 1 8.10063 10.1255 22.2745
685 1 12.1503 8.10064 20.2497
686 1 14.1753 10.1257 20.2495
687 1 14.1752 8.10064 22.2745
688 1 12.1503 10.1255 22.2745
689 1 0.0012661 12.1503 20.2497
690 1 2.02611 14.1752 20.2497
691 1 2.02611 12.1503 22.2745
692 1 0.0012661 14.1752 22.2745
693 1 4.05095 12.1503 20.2497
694 1 6.07579 14.1752 20.2497
695 1 6.07579 12.1503 22.2745
696 1 4.05095 14.1752 22.2745
697 1 8.10064 12.1503 20.2497
698 1 10.1257 14.1753 20.2495
699 1 10.1255 12.1503 22.2745
700 1 8.10064 14.1752 22.2745
701 1 12.1506 12.1506 20.2494
702 1 14.1719 14.1719 20.2556
703 1 14.1753 12.1505 22.2743
704 1 12.1505 14.1753 22.2743
705 1 0.0012661 16.2 20.2497
706 1 2.02611 18.2248 20.2497
707 1 2.02611 16.2 22.2745
708 1 0.0012661 18.2248 22.2745
709 1 4.05095 16.2 20.2497
710 1 6.07579 18.2248 20.2497
711 1 6.07579 16.2 22.2745
712 1 4.05095 18.2248 22.2745
713 1 8.10068 16.2 20.2497
714 1 10.1257 18.2247 20.2495
715 1 10.1257 16.2 22.2743
716 1 8.10064 18.2248 22.2745
717 1 12.1553 16.2 20.2447
718 1 14.1719 18.2281 20.2556
719 1 14.1756 16.2 22.2729
720 1 12.1505 18.2247 22.2743
721 1 0.0012661 20.2497 20.2497
722 1 2.02611 22.2745 20.2497
723 1 2.02611 20.2497 22.2745
724 1 0.0012661 22.2745 22.2745
725 1 4.05095 20.2497 20.2497
726 1 6.07579 22.2745 20.2497
727 1 6.07579 20.2497 22.2745
728 1 4.05095 22.2745 22.2745
729 1 8.10064 20.2497 20.2497
730 1 10.1255 22.2745 20.2497
731 1 10.1255 20.2497 22.2745
732 1 8.10063 22.2745 22.2745
733 1 12.1506 20.2494 20.2494
734 1 14.1753 22.2743 20.2495
735 1 14.1753 20.2495 22.2743
736 1 12.1503 22.2745 22.2745
737 1 0.0012661 24.2994 20.2497
738 1 2.02611 26.3242 20.2497
739 1 2.02611 24.2994 22.2745
740 1 0.0012661 26.3242 22.2745
741 1 4.05095 24.2994 20.2497
742 1 6.07579 26.3242 20.2497
743 1 6.07579 24.2994 22.2745
744 1 4.05095 26.3242 22.2745
745 1 8.10063 24.2994 20.2497
746 1 10.1255 26.3242 20.2497
747 1 10.1255 24.2994 22.2745
748 1 8.10063 26.3242 22.2745
749 1 12.1503 24.2994 20.2497
750 1 14.1752 26.3242 20.2497
751 1 14.1752 24.2994 22.2745
752 1 12.1503 26.3242 22.2745
753 1 0.0012661 28.3491 20.2497
754 1 2.02611 30.3739 20.2497
755 1 2.02611 28.3491 22.2745
756 1 0.0012661 30.3739 22.2745
757 1 4.05095 28.3491 20.2497
758 1 6.07579 30.3739 20.2497
759 1 6.07579 28.3491 22.2745
760 1 4.05095 30.3739 22.2745
761 1 8.10063 28.3491 20.2497
762 1 10.1255 30.3739 20.2497
763 1 10.1255 28.3491 22.2745
764 1 8.10063 30.3739 22.2745
765 1 12.1503 28.3491 20.2497
766 1 14.1752 30.3739 20.2497
767 1 14.1752 28.3491 22.2745
768 1 12.1503 30.3739 22.2745
769 1 0.0012661 0.0012661 24.2994
770 1 2.02611 2.02611 24.2994
771 1 2.02611 0.0012661 26.3242
772 1 0.0012661 2.02611 26.3242
773 1 4.05095 0.0012661 24.2994
774 1 6.07579 2.02611 24.2994
775 1 6.07579 0.0012661 26.3242
776 1 4.05095 2.02611 26.3242
777 1 8.10063 0.0012661 24.2994
778 1 10.1255 2.02611 24.2994
779 1 10.1255 0.0012661 26.3242
780 1 8.10063 2.02611 26.3242
781 1 12.1503 0.0012661 24.2994
782 1 14.1752 2.02611 24.2994
783 1 14.1752 0.0012661 26.3242
784 1 12.1503 2.02611 26.3242
785 1 0.0012661 4.05095 24.2994
786 1 2.02611 6.07579 24.2994
787 1 2.02611 4.05095 26.3242
788 1 0.0012661 6.07579 26.3242
789 1 4.05095 4.05095 24.2994
790 1 6.07579 6.07579 24.2994
791 1 6.07579 4.05095 26.3242
792 1 4.05095 6.07579 26.3242
793 1 8.10063 4.05095 24.2994
794 1 10.1255 6.07579 24.2994
795 1 10.1255 4.05095 26.3242
796 1 8.10063 6.07579 26.3242
797 1 12.1503 4.05095 24.2994
798 1 14.1752 6.07579 24.2994
799 1 14.1752 4.05095 26.3242
800 1 12.1503 6.07579 26.3242
801 1 0.0012661 8.10063 24.2994
802 1 2.02611 10.1255 24.2994
803 1 2.02611 8.10063 26.3242
804 1 0.0012661 10.1255 26.3242
805 1 4.05095 8.10063 24.2994
806 1 6.07579 10.1255 24.2994
807 1 6.07579 8.10063 26.3242
808 1 4.05095 10.1255 26.3242
809 1 8.10063 8.10063 24.2994
810 1 10.1255 10.1255 24.2994
811 1 10.1255 8.10063 26.3242
812 1 8.10063 10.1255 26.3242
813 1 12.1503 8.10063 24.2994
814 1 14.1752 10.1255 24.2994
815 1 14.1752 8.10063 26.3242
816 1 12.1503 10.1255 26.3242
817 1 0.0012661 12.1503 24.2994
818 1 2.02611 14.1752 24.2994
819 1 2.02611 12.1503 26.3242
820 1 0.0012661 14.1752 26.3242
821 1 4.05095 12.1503 24.2994
822 1 6.07579 14.1752 24.2994
823 1 6.07579 12.1503 26.3242
824 1 4.05095 14.1752 26.3242
825 1 8.10063 12.1503 24.2994
826 1 10.1255 14.1752 24.2994
827 1 10.1255 12.1503 26.3242
828 1 8.10063 14.1752 26.3242
829 1 12.1503 12.1503 24.2994
830 1 14.1752 14.1752 24.2993
831 1 14.1752 12.1503 26.3242
832 1 12.1503 14.1752 26.3242
833 1 0.0012661 16.2 24.2994
834 1 2.02611 18.2248 24.2994
835 1 2.02611 16.2 26.3242
836 1 0.0012661 18.2248 26.3242
837 1 4.05095 16.2 24.2994
838 1 6.07579 18.2248 24.2994
839 1 6.07579 16.2 26.3242
840 1 4.05095 18.2248 26.3242
841 1 8.10063 16.2 24.2994
842 1 10.1255 18.2248 24.2994
843 1 10.1255 16.2 26.3242
844 1 8.10063 18.2248 26.3242
845 1 12.1503 16.2 24.2993
846 1 14.1752 18.2248 24.2993
847 1 14.1752 16.2 26.3242
848 1 12.1503 18.2248 26.3242
849 1 0.0012661 20.2497 24.2994
850 1 2.02611 22.2745 24.2994
851 1 2.02611 20.2497 26.3242
852 1 0.0012661 22.2745 26.3242
853 1 4.05095 20.2497 24.2994
854 1 6.07579 22.2745 24.2994
855 1 6.07579 20.2497 26.3242
856 1 4.05095 22.2745 26.3242
857 1 8.10063 20.2497 24.2994
858 1 10.1255 22.2745 24.2994
859 1 10.1255 20.2497 26.3242
860 1 8.10063 22.2745 26.3242
861 1 12.1503 20.2497 24.2994
862 1 14.1752 22.2745 24.2994
863 1 14.1752 20.2497 26.3242
864 1 12.1503 22.2745 26.3242
865 1 0.0012661 24.2994 24.2994
866 1 2.02611 26.3242 24.2994
867 1 2.02611 24.2994 26.3242
868 1 0.0012661 26.3242 26.3242
869 1 4.05095 24.2994 24.2994
870 1 6.07579 26.3242 24.2994
871 1 6.07579 24.2994 26.3242
872 1 4.05095 26.3242 26.3242
873 1 8.10063 24.2994 24.2994
874 1 10.1255 26.3242 24.2994
875 1 10.1255 24.2994 26.3242
876 1 8.10063 26.3242 26.3242
877 1 12.1503 24.2994 24.2994
878 1 14.1752 26.3242 24.2994
879 1 14.1752 24.2994 26.3242
880 1 12.1503 26.3242 26.3242
881 1 0.0012661 28.3491 24.2994
882 1 2.02611 30.3739 24.2994
883 1 2.02611 28.3491 26.3242
884 1 0.0012661 30.3739 26.3242
885 1 4.05095 28.3491 24.2994
886 1 6.07579 30.3739 24.2994
887 1 6.07579 28.3491 26.3242
888 1 4.05095 30.3739 26.3242
889 1 8.10063 28.3491 24.2994
890 1 10.1255 30.3739 24.2994
891 1 10.1255 28.3491 26.3242
892 1 8.10063 30.3739 26.3242
893 1 12.1503 28.3491 24.2994
894 1 14.1752 30.3739 24.2994
895 1 14.1752 28.3491 26.3242
896 1 12.1503 30.3739 26.3242
897 1 0.0012661 0.0012661 28.3491
898 1 2.02611 2.02611 28.3491
899 1 2.02611 0.0012661 30.3739
900 1 0.0012661 2.02611 30.3739
901 1 4.05095 0.0012661 28.3491
902 1 6.07579 2.02611 28.3491
903 1 6.07579 0.0012661 30.3739
904 1 4.05095 2.02611 30.3739
905 1 8.10063 0.0012661 28.3491
906 1 10.1255 2.02611 28.3491
907 1 10.1255 0.0012661 30.3739
908 1 8.10063 2.02611 30.3739
909 1 12.1503 0.0012661 28.3491
910 1 14.1752 2.02611 28.3491
911 1 14.1752 0.0012661 30.3739
912 1 12.1503 2.02611 30.3739
913 1 0.0012661 4.05095 28.3491
914 1 2.02611 6.07579 28.3491
915 1 2.02611 4.05095 30.3739
916 1 0.0012661 6.07579 30.3739
917 1 4.05095 4.05095 28.3491
918 1 6.07579 6.07579 28.3491
919 1 6.07579 4.05095 30.3739
920 1 4.05095 6.07579 30.3739
921 1 8.10063 4.05095 28.3491
922 1 10.1255 6.07579 28.3491
923 1 10.1255 4.05095 30.3739
924 1 8.10063 6.07579 30.3739
925 1 12.1503 4.05095 28.3491
926 1 14.1752 6.07579 28.3491
927 1 14.1752 4.05095 30.3739
928 1 12.1503 6.07579 30.3739
929 1 0.0012661 8.10063 28.3491
930 1 2.02611 10.1255 28.3491
931 1 2.02611 8.10063 30.3739
932 1 0.0012661 10.1255 30.3739
933 1 4.05095 8.10063 28.3491
934 1 6.07579 10.1255 28.3491
935 1 6.07579 8.10063 30.3739
936 1 4.05095 10.1255 30.3739
937 1 8.10063 8.10063 28.3491
938 1 10.1255 10.1255 28.3491
939 1 10.1255 8.10063 30.3739
940 1 8.10063 10.1255 30.3739
941 1 12.1503 8.10063 28.3491
942 1 14.1752 10.1255 28.3491
943 1 14.1752 8.10063 30.3739
944 1 12.1503 10.1255 30.3739
945 1 0.0012661 12.1503 28.3491
946 1 2.02611 14.1752 28.3491
947 1 2.02611 12.1503 30.3739
948 1 0.0012661 14.1752 30.3739
949 1 4.05095 12.1503 28.3491
950 1 6.07579 14.1752 28.3491
951 1 6.07579 12.1503 30.3739
952 1 4.05095 14.1752 30.3739
953 1 8.10063 12.1503 28.3491
954 1 10.1255 14.1752 28.3491
955 1 10.1255 12.1503 30.3739
956 1 8.10063 14.1752 30.3739
957 1 12.1503 12.1503 28.3491
958 1 14.1752 14.1752 28.3491
959 1 14.1752 12.1503 30.3739
960 1 12.1503 14.1752 30.3739
961 1 0.0012661 16.2 28.3491
962 1 2.02611 18.2248 28.3491
963 1 2.02611 16.2 30.3739
964 1 0.0012661 18.2248 30.3739
965 1 4.05095 16.2 28.3491
966 1 6.07579 18.2248 28.3491
967 1 6.07579 16.2 30.3739
968 1 4.05095 18.2248 30.3739
969 1 8.10063 16.2 28.3491
970 1 10.1255 18.2248 28.3491
971 1 10.1255 16.2 30.3739
972 1 8.10063 18.2248 30.3739
973 1 12.1503 16.2 28.3491
974 1 14.1752 18.2248 28.3491
975 1 14.1752 16.2 30.3739
976 1 12.1503 18.2248 30.3739
977 1 0.0012661 20.2497 28.3491
978 1 2.02611 22.2745 28.3491
979 1 2.02611 20.2497 30.3739
980 1 0.0012661 22.2745 30.3739
981 1 4.05095 20.2497 28.3491
982 1 6.07579 22.2745 28.3491
983 1 6.07579 20.2497 30.3739
984 1 4.05095 22.2745 30.3739
985 1 8.10063 20.2497 28.3491
986 1 10.1255 22.2745 28.3491
987 1 10.1255 20.2497 30.3739
988 1 8.10063 22.2745 30.3739
989 1 12.1503 20.2497 28.3491
990 1 14.1752 22.2745 28.3491
991 1 14.1752 20.2497 30.3739