ITEM: TIMESTEP
0
ITEM: NUMBER OF ATOMS
108
ITEM: BOX BOUNDS pp pp pp
5.1568803849640688e-02 1.2548431196148586e+01
5.1568803849640688e-02 1.2548431196148586e+01
5.1568803849640688e-02 1.2548431196148586e+01
ITEM: ATOMS id type xu yu zu
1 1 -0.00481692 0.280482 -0.0819613
2 1 2.02278 1.91111 0.00473043
3 1 2.31739 0.0797924 2.21296
4 1 -0.0329731 2.47539 2.16791
5 1 4.20641 0.485333 0.140021
6 1 6.38289 2.18077 -0.146041
7 1 6.40268 0.463368 1.62671
8 1 3.8357 2.27485 2.4884
9 1 8.44289 -0.241534 -0.128094
10 1 10.4191 1.87699 0.219525
11 1 10.5685 -0.407623 2.02235
12 1 8.55041 2.54623 2.13922
13 1 0.272738 4.02645 -0.00268394
14 1 2.07085 6.25044 -0.118005
15 1 2.02275 4.18409 2.23298
16 1 0.182894 6.42563 1.95646
17 1 4.23912 3.97245 -0.112227
18 1 6.33455 6.50074 0.356473
19 1 6.10335 4.19416 2.28239
20 1 3.89209 6.23349 2.12515
21 1 8.43812 4.67257 0.476045
22 1 10.6459 6.35559 0.319945
23 1 10.6157 4.49957 2.36368
24 1 8.61798 6.40267 2.45497
25 1 0.122958 8.50183 -0.138451
26 1 2.45411 10.7258 -0.0365549
27 1 1.51614 8.90605 2.12365
28 1 0.0471667 10.8674 1.80174
29 1 3.80439 7.94796 -0.365503
30 1 6.32561 10.5563 -0.0348845
31 1 6.16219 8.55028 2.49583
32 1 4.34639 10.7933 1.84396
33 1 8.60319 8.28717 0.376537
34 1 10.6061 10.2873 -0.0906501
35 1 10.3814 8.46378 2.27029
36 1 7.99361 10.375 1.80995
37 1 0.184251 0.417516 4.16131
38 1 1.9555 2.1266 4.6729
39 1 1.78813 -0.209365 6.43224
40 1 0.0513455 2.3139 6.48772
41 1 4.44909 -0.181333 3.86459
42 1 6.28655 2.09024 3.9935
43 1 6.38608 -0.157497 6.50953
44 1 4.3962 1.52735 5.86515
45 1 8.20445 0.0882944 3.8039
46 1 10.4798 2.11517 4.13124
47 1 10.4721 0.184892 6.05864
48 1 7.81009 2.33625 5.91105
49 1 -0.118925 4.16555 4.57066
50 1 1.8768 6.10327 4.32774
51 1 2.30445 4.37216 6.37992
52 1 -0.0887112 6.24521 6.42172
53 1 4.09561 4.11297 4.21845
54 1 6.34881 6.2564 4.20182
55 1 6.41724 4.40665 6.58335
56 1 4.21921 6.0715 6.19881
57 1 8.3287 4.34652 4.30824
58 1 10.4435 6.57555 4.43509
59 1 10.1569 4.12127 6.34904
60 1 8.73137 6.77487 6.32646
61 1 0.100608 8.46081 4.18103
62 1 2.12683 10.485 4.06999
63 1 1.85059 7.98498 6.38234
64 1 0.128019 10.453 6.41913
65 1 3.85132 7.88893 4.31262
66 1 6.26126 10.3891 4.23047
67 1 5.97308 7.97308 6.08955
68 1 4.20619 10.2155 6.0434
69 1 8.46476 8.6619 4.26828
70 1 10.7256 10.4012 4.25358
71 1 10.6457 8.54792 6.47966
72 1 8.51529 10.378 6.09425
73 1 0.0387659 0.0047123 8.35878
74 1 2.57371 1.69919 7.83333
75 1 2.18318 0.294584 10.4719
76 1 0.108522 2.37659 10.5298
77 1 4.08873 -0.580277 8.25118
78 1 6.32422 2.01229 8.65455
79 1 6.36362 -0.37407 10.014
80 1 4.09792 1.95093 10.1413
81 1 8.72535 -0.0537744 7.8941
82 1 10.4745 2.00673 8.66256
83 1 10.4894 0.0314459 10.7139
84 1 8.23379 2.08483 10.9535
85 1 0.411127 4.12567 8.76411
86 1 1.96711 6.43099 8.48874
87 1 2.4741 4.20764 10.5982
88 1 -0.0415685 6.39154 10.2851
89 1 4.34059 4.1192 8.25897
90 1 6.53087 6.41517 8.27238
91 1 6.48745 4.24836 10.6238
92 1 4.44322 6.15063 10.434
93 1 8.58031 4.37343 8.75165
94 1 10.3418 6.50304 8.43643
95 1 10.4998 4.19079 10.9491
96 1 8.31181 6.34124 10.8953
97 1 -0.0784479 8.496 8.32133
98 1 2.06413 10.4805 8.47952
99 1 1.69231 8.39046 10.3391
100 1 0.226946 10.6819 10.5157
101 1 4.03521 8.11372 8.12202
102 1 6.20512 10.2166 7.95668
103 1 6.2354 8.55551 10.1958
104 1 4.14991 10.3306 10.37
105 1 8.65832 8.50684 8.48688
106 1 10.5247 10.7086 8.7478
107 1 10.6215 8.17799 10.7748
108 1 8.60662 10.3702 10.2877
