ITEM: TIMESTEP
0
ITEM: NUMBER OF ATOMS
7180
ITEM: BOX BOUNDS pp pp pp
4.4748292840585367e-02 4.3335251707159422e+01
4.4748292840585367e-02 4.3335251707159422e+01
7.4580488067642281e-02 7.2225419511932358e+01
ITEM: ATOMS id type xu yu zu
1 1 39.7277 19.8862 34.3462
2 1 1.83853 1.83853 0.100768
3 1 1.82593 0.0447483 1.85495
4 1 0.0447483 1.82593 1.85495
5 1 3.66885 0.0447483 0.0839492
6 1 5.45614 1.84943 0.0780782
7 1 5.45694 0.0447483 1.87799
8 1 3.6531 1.84795 1.87908
9 1 7.25928 0.0447483 0.0788095
10 1 9.06363 1.84852 0.0787241
11 1 9.06363 0.0447483 1.87633
12 1 7.25935 1.84827 1.87614
13 1 10.8674 0.0447483 0.0787161
14 1 12.6711 1.84852 0.0787241
15 1 12.6711 0.0447483 1.87633
16 1 10.8674 1.84852 1.87633
17 1 14.4755 0.0447483 0.0788095
18 1 16.2786 1.84943 0.0780782
19 1 16.2778 0.0447483 1.87799
20 1 14.4754 1.84827 1.87614
21 1 18.0659 0.0447483 0.0839492
22 1 19.8962 1.83853 0.100768
23 1 19.9088 0.0447483 1.85495
24 1 18.0816 1.84795 1.87908
25 1 36.1202 19.8862 34.3463
26 1 23.4838 1.83853 0.100768
27 1 23.4712 0.0447483 1.85495
28 1 21.69 1.82593 1.85495
29 1 25.3141 0.0447483 0.0839492
30 1 27.1014 1.84943 0.0780782
31 1 27.1022 0.0447483 1.87799
32 1 25.2984 1.84795 1.87908
33 1 28.9045 0.0447483 0.0788095
34 1 30.7089 1.84852 0.0787241
35 1 30.7089 0.0447483 1.87633
36 1 28.9046 1.84827 1.87614
37 1 32.5126 0.0447483 0.0787161
38 1 34.3164 1.84852 0.0787241
39 1 34.3164 0.0447483 1.87633
40 1 32.5126 1.84852 1.87633
41 1 36.1207 0.0447483 0.0788095
42 1 37.9239 1.84943 0.0780782
43 1 37.9231 0.0447483 1.87799
44 1 36.1207 1.84827 1.87614
45 1 39.7112 0.0447483 0.0839492
46 1 41.5415 1.83853 0.100768
47 1 41.5541 0.0447483 1.85495
48 1 39.7269 1.84795 1.87908
49 1 0.0447483 3.66885 0.0839492
50 1 1.84943 5.45614 0.0780782
51 1 1.84795 3.6531 1.87908
52 1 0.0447483 5.45694 1.87799
53 1 3.64628 3.64628 0.0783066
54 1 5.45517 5.45517 0.0788997
55 1 5.45576 3.65253 1.87566
56 1 3.65253 5.45576 1.87566
57 1 7.25963 3.65209 0.0788097
58 1 9.06359 5.45605 0.0787138
59 1 9.0636 3.65229 1.87634
60 1 7.25978 5.45601 1.87634
61 1 10.8674 3.65229 0.0787141
62 1 12.6712 5.45605 0.0787138
63 1 12.6711 3.65229 1.87634
64 1 10.8674 5.45606 1.87634
65 1 14.4751 3.65209 0.0788097
66 1 16.2796 5.45517 0.0788997
67 1 16.279 3.65253 1.87566
68 1 14.475 5.45601 1.87634
69 1 18.0885 3.64628 0.0783066
70 1 19.8853 5.45614 0.0780782
71 1 19.8868 3.6531 1.87908
72 1 18.0822 5.45576 1.87566
73 1 21.69 3.66885 0.0839492
74 1 23.4947 5.45614 0.0780782
75 1 23.4932 3.6531 1.87908
76 1 21.69 5.45694 1.87799
77 1 25.2915 3.64628 0.0783066
78 1 27.1004 5.45517 0.0788997
79 1 27.101 3.65253 1.87566
80 1 25.2978 5.45576 1.87566
81 1 28.9049 3.65209 0.0788097
82 1 30.7088 5.45605 0.0787138
83 1 30.7089 3.65229 1.87634
84 1 28.905 5.45601 1.87634
85 1 32.5126 3.65229 0.0787141
86 1 34.3164 5.45605 0.0787138
87 1 34.3164 3.65229 1.87634
88 1 32.5126 5.45606 1.87634
89 1 36.1204 3.65209 0.0788097
90 1 37.9248 5.45517 0.0788997
91 1 37.9242 3.65253 1.87566
92 1 36.1202 5.45601 1.87634
93 1 39.7337 3.64628 0.0783066
94 1 41.5306 5.45614 0.0780782
95 1 41.5321 3.6531 1.87908
96 1 39.7275 5.45576 1.87566
97 1 0.0447483 7.25928 0.0788095
98 1 1.84852 9.06363 0.0787241
99 1 1.84827 7.25935 1.87614
100 1 0.0447483 9.06363 1.87633
101 1 3.65209 7.25963 0.0788097
102 1 5.45605 9.06359 0.0787138
103 1 5.45601 7.25978 1.87634
104 1 3.65229 9.0636 1.87634
105 1 7.25981 7.25981 0.0787138
106 1 9.0636 9.0636 0.0787138
107 1 9.0636 7.25983 1.87633
108 1 7.25983 9.0636 1.87633
109 1 10.8674 7.25983 0.078714
110 1 12.6711 9.0636 0.0787138
111 1 12.6712 7.25983 1.87633
112 1 10.8674 9.0636 1.87633
113 1 14.4749 7.25981 0.0787138
114 1 16.2787 9.06359 0.0787138
115 1 16.2787 7.25978 1.87634
116 1 14.4749 9.0636 1.87633
117 1 18.0827 7.25963 0.0788097
118 1 19.8862 9.06363 0.0787241
119 1 19.8865 7.25935 1.87614
120 1 18.0825 9.0636 1.87634
121 1 21.69 7.25928 0.0788095
122 1 23.4938 9.06363 0.0787241
123 1 23.4935 7.25935 1.87614
124 1 21.69 9.06363 1.87633
125 1 25.2973 7.25963 0.0788097
126 1 27.1013 9.06359 0.0787138
127 1 27.1013 7.25978 1.87634
128 1 25.2975 9.0636 1.87634
129 1 28.9051 7.25981 0.0787138
130 1 30.7089 9.0636 0.0787138
131 1 30.7088 7.25983 1.87633
132 1 28.9051 9.0636 1.87633
133 1 32.5126 7.25983 0.078714
134 1 34.3164 9.0636 0.0787138
135 1 34.3164 7.25983 1.87633
136 1 32.5126 9.0636 1.87633
137 1 36.1202 7.25981 0.0787138
138 1 37.9239 9.06359 0.0787138
139 1 37.924 7.25978 1.87634
140 1 36.1202 9.0636 1.87633
141 1 39.7279 7.25963 0.0788097
142 1 41.5315 9.06363 0.0787241
143 1 41.5317 7.25935 1.87614
144 1 39.7277 9.0636 1.87634
145 1 0.0447483 10.8674 0.0787161
146 1 1.84852 12.6711 0.0787241
147 1 1.84852 10.8674 1.87633
148 1 0.0447483 12.6711 1.87633
149 1 3.65229 10.8674 0.0787141
150 1 5.45605 12.6712 0.0787138
151 1 5.45606 10.8674 1.87634
152 1 3.65229 12.6711 1.87634
153 1 7.25983 10.8674 0.078714
154 1 9.0636 12.6711 0.0787138
155 1 9.0636 10.8674 1.87633
156 1 7.25983 12.6712 1.87633
157 1 10.8674 10.8674 0.0787135
158 1 12.6711 12.6711 0.0787138
159 1 12.6711 10.8674 1.87633
160 1 10.8674 12.6711 1.87633
161 1 14.4749 10.8674 0.078714
162 1 16.2787 12.6712 0.0787138
163 1 16.2787 10.8674 1.87634
164 1 14.4749 12.6712 1.87633
165 1 18.0825 10.8674 0.0787141
166 1 19.8862 12.6711 0.0787241
167 1 19.8862 10.8674 1.87633
168 1 18.0825 12.6711 1.87634
169 1 21.69 10.8674 0.0787161
170 1 23.4938 12.6711 0.0787241
171 1 23.4938 10.8674 1.87633
172 1 21.69 12.6711 1.87633
173 1 25.2975 10.8674 0.0787141
174 1 27.1013 12.6712 0.0787138
175 1 27.1013 10.8674 1.87634
176 1 25.2975 12.6711 1.87634
177 1 28.9051 10.8674 0.078714
178 1 30.7089 12.6711 0.0787138
179 1 30.7089 10.8674 1.87633
180 1 28.9051 12.6712 1.87633
181 1 32.5126 10.8674 0.0787135
182 1 34.3164 12.6711 0.0787138
183 1 34.3164 10.8674 1.87633
184 1 32.5126 12.6711 1.87633
185 1 36.1202 10.8674 0.078714
186 1 37.9239 12.6712 0.0787138
187 1 37.9239 10.8674 1.87634
188 1 36.1202 12.6712 1.87633
189 1 39.7277 10.8674 0.0787141
190 1 41.5315 12.6711 0.0787241
191 1 41.5315 10.8674 1.87633
192 1 39.7277 12.6711 1.87634
193 1 0.0447483 14.4755 0.0788095
194 1 1.84943 16.2786 0.0780782
195 1 1.84827 14.4754 1.87614
196 1 0.0447483 16.2778 1.87799
197 1 3.65209 14.4751 0.0788097
198 1 5.45517 16.2796 0.0788997
199 1 5.45601 14.475 1.87634
200 1 3.65253 16.279 1.87566
201 1 7.25981 14.4749 0.0787138
202 1 9.06359 16.2787 0.0787138
203 1 9.0636 14.4749 1.87633
204 1 7.25978 16.2787 1.87634
205 1 10.8674 14.4749 0.078714
206 1 12.6712 16.2787 0.0787138
207 1 12.6712 14.4749 1.87633
208 1 10.8674 16.2787 1.87634
209 1 14.4749 14.4749 0.0787138
210 1 16.2796 16.2796 0.0788997
211 1 16.2787 14.475 1.87634
212 1 14.475 16.2787 1.87634
213 1 18.0827 14.4751 0.0788097
214 1 19.8853 16.2786 0.0780782
215 1 19.8865 14.4754 1.87614
216 1 18.0822 16.279 1.87566
217 1 21.69 14.4755 0.0788095
218 1 23.4947 16.2786 0.0780782
219 1 23.4935 14.4754 1.87614
220 1 21.69 16.2778 1.87799
221 1 25.2973 14.4751 0.0788097
222 1 27.1004 16.2796 0.0788997
223 1 27.1013 14.475 1.87634
224 1 25.2978 16.279 1.87566
225 1 28.9051 14.4749 0.0787138
226 1 30.7088 16.2787 0.0787138
227 1 30.7088 14.4749 1.87633
228 1 28.905 16.2787 1.87634
229 1 32.5126 14.4749 0.078714
230 1 34.3164 16.2787 0.0787138
231 1 34.3164 14.4749 1.87633
232 1 32.5126 16.2787 1.87634
233 1 36.1202 14.4749 0.0787138
234 1 37.9248 16.2796 0.0788997
235 1 37.924 14.475 1.87634
236 1 36.1202 16.2787 1.87634
237 1 39.7279 14.4751 0.0788097
238 1 41.5306 16.2786 0.0780782
239 1 41.5317 14.4754 1.87614
240 1 39.7275 16.279 1.87566
241 1 0.0447483 18.0659 0.0839492
242 1 1.83853 19.8962 0.100768
243 1 1.84795 18.0816 1.87908
244 1 0.0447483 19.9088 1.85495
245 1 3.64628 18.0885 0.0783066
246 1 5.45614 19.8853 0.0780782
247 1 5.45576 18.0822 1.87566
248 1 3.6531 19.8868 1.87908
249 1 7.25963 18.0827 0.0788097
250 1 9.06363 19.8862 0.0787241
251 1 9.0636 18.0825 1.87634
252 1 7.25935 19.8865 1.87614
253 1 10.8674 18.0825 0.0787141
254 1 12.6711 19.8862 0.0787241
255 1 12.6711 18.0825 1.87634
256 1 10.8674 19.8862 1.87633
257 1 14.4751 18.0827 0.0788097
258 1 16.2786 19.8853 0.0780782
259 1 16.279 18.0822 1.87566
260 1 14.4754 19.8865 1.87614
261 1 18.0885 18.0885 0.0783066
262 1 19.8962 19.8962 0.100768
263 1 19.8868 18.0816 1.87908
264 1 18.0816 19.8868 1.87908
265 1 21.69 18.0659 0.0839492
266 1 23.4838 19.8962 0.100768
267 1 23.4932 18.0816 1.87908
268 1 21.69 19.9088 1.85495
269 1 25.2915 18.0885 0.0783066
270 1 27.1014 19.8853 0.0780782
271 1 27.101 18.0822 1.87566
272 1 25.2984 19.8868 1.87908
273 1 28.9049 18.0827 0.0788097
274 1 30.7089 19.8862 0.0787241
275 1 30.7089 18.0825 1.87634
276 1 28.9046 19.8865 1.87614
277 1 32.5126 18.0825 0.0787141
278 1 34.3164 19.8862 0.0787241
279 1 34.3164 18.0825 1.87634
280 1 32.5126 19.8862 1.87633
281 1 36.1204 18.0827 0.0788097
282 1 37.9239 19.8853 0.0780782
283 1 37.9242 18.0822 1.87566
284 1 36.1207 19.8865 1.87614
285 1 39.7337 18.0885 0.0783066
286 1 41.5415 19.8962 0.100768
287 1 41.5321 18.0816 1.87908
288 1 39.7269 19.8868 1.87908
289 1 0.0447483 0.0447483 3.68588
290 1 1.84795 1.84795 3.67189
291 1 1.8501 0.0447483 5.48404
292 1 0.0447483 1.8501 5.48404
293 1 3.64429 0.0447483 3.66641
294 1 5.45605 1.84814 3.67535
295 1 5.45547 0.0447483 5.48192
296 1 3.65304 1.84822 5.48306
297 1 7.2595 0.0447483 3.67495
298 1 9.06361 1.84853 3.67526
299 1 9.0636 0.0447483 5.48247
300 1 7.25982 1.84853 5.48245
301 1 10.8674 0.0447483 3.67527
302 1 12.6711 1.84853 3.67526
303 1 12.6711 0.0447483 5.48247
304 1 10.8674 1.84852 5.48247
305 1 14.4752 0.0447483 3.67495
306 1 16.2787 1.84814 3.67535
307 1 16.2793 0.0447483 5.48192
308 1 14.4749 1.84853 5.48245
309 1 18.0905 0.0447483 3.66641
310 1 19.8868 1.84795 3.67189
311 1 19.8847 0.0447483 5.48404
312 1 18.0817 1.84822 5.48306
313 1 21.69 0.0447483 3.68588
314 1 23.4932 1.84795 3.67189
315 1 23.4953 0.0447483 5.48404
316 1 21.69 1.8501 5.48404
317 1 25.2895 0.0447483 3.66641
318 1 27.1013 1.84814 3.67535
319 1 27.1007 0.0447483 5.48192
320 1 25.2983 1.84822 5.48306
321 1 28.9048 0.0447483 3.67495
322 1 30.7089 1.84853 3.67526
323 1 30.7089 0.0447483 5.48247
324 1 28.9051 1.84853 5.48245
325 1 32.5126 0.0447483 3.67527
326 1 34.3164 1.84853 3.67526
327 1 34.3164 0.0447483 5.48247
328 1 32.5126 1.84852 5.48247
329 1 36.1205 0.0447483 3.67495
330 1 37.9239 1.84814 3.67535
331 1 37.9245 0.0447483 5.48192
332 1 36.1202 1.84853 5.48245
333 1 39.7357 0.0447483 3.66641
334 1 41.532 1.84795 3.67189
335 1 41.5299 0.0447483 5.48404
336 1 39.727 1.84822 5.48306
337 1 0.0447483 3.64429 3.66641
338 1 1.84814 5.45605 3.67535
339 1 1.84822 3.65304 5.48306
340 1 0.0447483 5.45547 5.48192
341 1 3.65272 3.65272 3.67513
342 1 5.4559 5.4559 3.67516
343 1 5.45589 3.65223 5.48231
344 1 3.65223 5.45589 5.48231
345 1 7.25972 3.65226 3.67519
346 1 9.0636 5.45608 3.67528
347 1 9.0636 3.6523 5.48249
348 1 7.2599 5.4562 5.48261
349 1 10.8674 3.65229 3.67527
350 1 12.6712 5.45608 3.67528
351 1 12.6712 3.6523 5.48249
352 1 10.8674 5.45654 5.48295
353 1 14.475 3.65226 3.67519
354 1 16.2788 5.4559 3.67516
355 1 16.2789 3.65223 5.48231
356 1 14.4748 5.4562 5.48261
357 1 18.082 3.65272 3.67513
358 1 19.8866 5.45605 3.67535
359 1 19.8865 3.65304 5.48306
360 1 18.0825 5.45589 5.48231
361 1 21.69 3.64429 3.66641
362 1 23.4934 5.45605 3.67535
363 1 23.4935 3.65304 5.48306
364 1 21.69 5.45547 5.48192
365 1 25.298 3.65272 3.67513
366 1 27.1012 5.4559 3.67516
367 1 27.1011 3.65223 5.48231
368 1 25.2975 5.45589 5.48231
369 1 28.905 3.65226 3.67519
370 1 30.7088 5.45608 3.67528
371 1 30.7088 3.6523 5.48249
372 1 28.9052 5.4562 5.48261
373 1 32.5126 3.65229 3.67527
374 1 34.3164 5.45608 3.67528
375 1 34.3164 3.6523 5.48249
376 1 32.5126 5.45654 5.48295
377 1 36.1203 3.65226 3.67519
378 1 37.9241 5.4559 3.67516
379 1 37.9241 3.65223 5.48231
380 1 36.1201 5.4562 5.48261
381 1 39.7273 3.65272 3.67513
382 1 41.5319 5.45605 3.67535
383 1 41.5318 3.65304 5.48306
384 1 39.7278 5.45589 5.48231
385 1 0.0447483 7.2595 3.67495
386 1 1.84853 9.06361 3.67526
387 1 1.84853 7.25982 5.48245
388 1 0.0447483 9.0636 5.48247
389 1 3.65226 7.25972 3.67519
390 1 5.45608 9.0636 3.67528
391 1 5.4562 7.2599 5.48261
392 1 3.6523 9.0636 5.48249
393 1 7.25988 7.25988 3.67536
394 1 9.06372 9.06372 3.67558
395 1 9.06375 7.25902 5.48172
396 1 7.25902 9.06375 5.48172
397 1 10.8674 7.25998 3.67546
398 1 12.671 9.06372 3.67558
399 1 12.671 7.25902 5.48172
400 1 10.8674 9.06211 5.4807
401 1 14.4749 7.25988 3.67536
402 1 16.2787 9.0636 3.67528
403 1 16.2785 7.2599 5.48261
404 1 14.4757 9.06375 5.48172
405 1 18.0825 7.25972 3.67519
406 1 19.8862 9.06361 3.67526
407 1 19.8862 7.25982 5.48245
408 1 18.0824 9.0636 5.48249
409 1 21.69 7.2595 3.67495
410 1 23.4938 9.06361 3.67526
411 1 23.4938 7.25982 5.48245
412 1 21.69 9.0636 5.48247
413 1 25.2975 7.25972 3.67519
414 1 27.1013 9.0636 3.67528
415 1 27.1015 7.2599 5.48261
416 1 25.2976 9.0636 5.48249
417 1 28.9051 7.25988 3.67536
418 1 30.709 9.06372 3.67558
419 1 30.709 7.25902 5.48172
420 1 28.9043 9.06375 5.48172
421 1 32.5126 7.25998 3.67546
422 1 34.3163 9.06372 3.67558
423 1 34.3163 7.25902 5.48172
424 1 32.5126 9.06211 5.4807
425 1 36.1201 7.25988 3.67536
426 1 37.9239 9.0636 3.67528
427 1 37.9238 7.2599 5.48261
428 1 36.121 9.06375 5.48172
429 1 39.7277 7.25972 3.67519
430 1 41.5315 9.06361 3.67526
431 1 41.5315 7.25982 5.48245
432 1 39.7277 9.0636 5.48249
433 1 0.0447483 10.8674 3.67527
434 1 1.84853 12.6711 3.67526
435 1 1.84852 10.8674 5.48247
436 1 0.0447483 12.6711 5.48247
437 1 3.65229 10.8674 3.67527
438 1 5.45608 12.6712 3.67528
439 1 5.45654 10.8674 5.48295
440 1 3.6523 12.6712 5.48249
441 1 7.25998 10.8674 3.67546
442 1 9.06372 12.671 3.67558
443 1 9.06211 10.8674 5.4807
444 1 7.25902 12.671 5.48172
445 1 10.8674 10.8674 3.67568
446 1 12.671 12.671 3.67558
447 1 12.6726 10.8674 5.4807
448 1 10.8674 12.6726 5.4807
449 1 14.4748 10.8674 3.67546
450 1 16.2787 12.6712 3.67528
451 1 16.2782 10.8674 5.48295
452 1 14.4757 12.671 5.48172
453 1 18.0825 10.8674 3.67527
454 1 19.8862 12.6711 3.67526
455 1 19.8862 10.8674 5.48247
456 1 18.0824 12.6712 5.48249
457 1 21.69 10.8674 3.67527
458 1 23.4938 12.6711 3.67526
459 1 23.4938 10.8674 5.48247
460 1 21.69 12.6711 5.48247
461 1 25.2975 10.8674 3.67527
462 1 27.1013 12.6712 3.67528
463 1 27.1018 10.8674 5.48295
464 1 25.2976 12.6712 5.48249
465 1 28.9052 10.8674 3.67546
466 1 30.709 12.671 3.67558
467 1 30.7074 10.8674 5.4807
468 1 28.9043 12.671 5.48172
469 1 32.5126 10.8674 3.67568
470 1 34.3163 12.671 3.67558
471 1 34.3179 10.8674 5.4807
472 1 32.5126 12.6726 5.4807
473 1 36.12 10.8674 3.67546
474 1 37.9239 12.6712 3.67528
475 1 37.9235 10.8674 5.48295
476 1 36.121 12.671 5.48172
477 1 39.7277 10.8674 3.67527
478 1 41.5315 12.6711 3.67526
479 1 41.5315 10.8674 5.48247
480 1 39.7277 12.6712 5.48249
481 1 0.0447483 14.4752 3.67495
482 1 1.84814 16.2787 3.67535
483 1 1.84853 14.4749 5.48245
484 1 0.0447483 16.2793 5.48192
485 1 3.65226 14.475 3.67519
486 1 5.4559 16.2788 3.67516
487 1 5.4562 14.4748 5.48261
488 1 3.65223 16.2789 5.48231
489 1 7.25988 14.4749 3.67536
490 1 9.0636 16.2787 3.67528
491 1 9.06375 14.4757 5.48172
492 1 7.2599 16.2785 5.48261
493 1 10.8674 14.4748 3.67546
494 1 12.6712 16.2787 3.67528
495 1 12.671 14.4757 5.48172
496 1 10.8674 16.2782 5.48295
497 1 14.4749 14.4749 3.67536
498 1 16.2788 16.2788 3.67516
499 1 16.2785 14.4748 5.48261
500 1 14.4748 16.2785 5.48261
501 1 18.0825 14.475 3.67519
502 1 19.8866 16.2787 3.67535
503 1 19.8862 14.4749 5.48245
504 1 18.0825 16.2789 5.48231
505 1 21.69 14.4752 3.67495
506 1 23.4934 16.2787 3.67535
507 1 23.4938 14.4749 5.48245
508 1 21.69 16.2793 5.48192
509 1 25.2975 14.475 3.67519
510 1 27.1012 16.2788 3.67516
511 1 27.1015 14.4748 5.48261
512 1 25.2975 16.2789 5.48231
513 1 28.9051 14.4749 3.67536
514 1 30.7088 16.2787 3.67528
515 1 30.709 14.4757 5.48172
516 1 28.9052 16.2785 5.48261
517 1 32.5126 14.4748 3.67546
518 1 34.3164 16.2787 3.67528
519 1 34.3163 14.4757 5.48172
520 1 32.5126 16.2782 5.48295
521 1 36.1201 14.4749 3.67536
522 1 37.9241 16.2788 3.67516
523 1 37.9238 14.4748 5.48261
524 1 36.1201 16.2785 5.48261
525 1 39.7277 14.475 3.67519
526 1 41.5319 16.2787 3.67535
527 1 41.5315 14.4749 5.48245
528 1 39.7278 16.2789 5.48231
529 1 0.0447483 18.0905 3.66641
530 1 1.84795 19.8868 3.67189
531 1 1.84822 18.0817 5.48306
532 1 0.0447483 19.8847 5.48404
533 1 3.65272 18.082 3.67513
534 1 5.45605 19.8866 3.67535
535 1 5.45589 18.0825 5.48231
536 1 3.65304 19.8865 5.48306
537 1 7.25972 18.0825 3.67519
538 1 9.06361 19.8862 3.67526
539 1 9.0636 18.0824 5.48249
540 1 7.25982 19.8862 5.48245
541 1 10.8674 18.0825 3.67527
542 1 12.6711 19.8862 3.67526
543 1 12.6712 18.0824 5.48249
544 1 10.8674 19.8862 5.48247
545 1 14.475 18.0825 3.67519
546 1 16.2787 19.8866 3.67535
547 1 16.2789 18.0825 5.48231
548 1 14.4749 19.8862 5.48245
549 1 18.082 18.082 3.67513
550 1 19.8868 19.8868 3.67189
551 1 19.8865 18.0817 5.48306
552 1 18.0817 19.8865 5.48306
553 1 21.69 18.0905 3.66641
554 1 23.4932 19.8868 3.67189
555 1 23.4935 18.0817 5.48306
556 1 21.69 19.8847 5.48404
557 1 25.298 18.082 3.67513
558 1 27.1013 19.8866 3.67535
559 1 27.1011 18.0825 5.48231
560 1 25.2983 19.8865 5.48306
561 1 28.905 18.0825 3.67519
562 1 30.7089 19.8862 3.67526
563 1 30.7088 18.0824 5.48249
564 1 28.9051 19.8862 5.48245
565 1 32.5126 18.0825 3.67527
566 1 34.3164 19.8862 3.67526
567 1 34.3164 18.0824 5.48249
568 1 32.5126 19.8862 5.48247
569 1 36.1203 18.0825 3.67519
570 1 37.9239 19.8866 3.67535
571 1 37.9241 18.0825 5.48231
572 1 36.1202 19.8862 5.48245
573 1 39.7273 18.082 3.67513
574 1 41.532 19.8868 3.67189
575 1 41.5318 18.0817 5.48306
576 1 39.727 19.8865 5.48306
577 1 0.0447483 0.0447483 7.28935
578 1 1.84838 1.84838 7.28946
579 1 1.84852 0.0447483 9.09342
580 1 0.0447483 1.84852 9.09342
581 1 3.65213 0.0447483 7.2896
582 1 5.45604 1.84853 7.28978
583 1 5.45606 0.0447483 9.09341
584 1 3.65229 1.84852 9.09342
585 1 7.25983 0.0447483 7.28978
586 1 9.0636 1.84851 7.28978
587 1 9.0636 0.0447483 9.09341
588 1 7.25983 1.84851 9.09341
589 1 10.8674 0.0447483 7.28979
590 1 12.6711 1.84851 7.28978
591 1 12.6711 0.0447483 9.09341
592 1 10.8674 1.84851 9.09341
593 1 14.4749 0.0447483 7.28978
594 1 16.2787 1.84853 7.28978
595 1 16.2787 0.0447483 9.09341
596 1 14.4749 1.84851 9.09341
597 1 18.0826 0.0447483 7.2896
598 1 19.8864 1.84838 7.28946
599 1 19.8862 0.0447483 9.09342
600 1 18.0825 1.84852 9.09342
601 1 21.69 0.0447483 7.28935
602 1 23.4936 1.84838 7.28946
603 1 23.4938 0.0447483 9.09342
604 1 21.69 1.84852 9.09342
605 1 25.2974 0.0447483 7.2896
606 1 27.1013 1.84853 7.28978
607 1 27.1013 0.0447483 9.09341
608 1 25.2975 1.84852 9.09342
609 1 28.9051 0.0447483 7.28978
610 1 30.7089 1.84851 7.28978
611 1 30.7089 0.0447483 9.09341
612 1 28.9051 1.84851 9.09341
613 1 32.5126 0.0447483 7.28979
614 1 34.3164 1.84851 7.28978
615 1 34.3164 0.0447483 9.09341
616 1 32.5126 1.84851 9.09341
617 1 36.1202 0.0447483 7.28978
618 1 37.924 1.84853 7.28978
619 1 37.9239 0.0447483 9.09341
620 1 36.1202 1.84851 9.09341
621 1 39.7279 0.0447483 7.2896
622 1 41.5316 1.84838 7.28946
623 1 41.5315 0.0447483 9.09342
624 1 39.7277 1.84852 9.09342
625 1 0.0447483 3.65213 7.2896
626 1 1.84853 5.45604 7.28978
627 1 1.84852 3.65229 9.09342
628 1 0.0447483 5.45606 9.09341
629 1 3.65224 3.65224 7.28969
630 1 5.4562 5.4562 7.28986
631 1 5.45608 3.6523 9.09341
632 1 3.6523 5.45608 9.09341
633 1 7.25988 3.65238 7.28983
634 1 9.06375 5.4553 7.28897
635 1 9.06372 3.6526 9.09353
636 1 7.25902 5.4553 9.09356
637 1 10.8674 3.65248 7.28993
638 1 12.671 5.4553 7.28897
639 1 12.671 3.6526 9.09353
640 1 10.8674 5.45428 9.09192
641 1 14.4749 3.65238 7.28983
642 1 16.2786 5.4562 7.28986
643 1 16.2787 3.6523 9.09341
644 1 14.4757 5.4553 9.09356
645 1 18.0825 3.65224 7.28969
646 1 19.8862 5.45604 7.28978
647 1 19.8862 3.65229 9.09342
648 1 18.0824 5.45608 9.09341
649 1 21.69 3.65213 7.2896
650 1 23.4938 5.45604 7.28978
651 1 23.4938 3.65229 9.09342
652 1 21.69 5.45606 9.09341
653 1 25.2975 3.65224 7.28969
654 1 27.1014 5.4562 7.28986
655 1 27.1013 3.6523 9.09341
656 1 25.2976 5.45608 9.09341
657 1 28.9051 3.65238 7.28983
658 1 30.709 5.4553 7.28897
659 1 30.709 3.6526 9.09353
660 1 28.9043 5.4553 9.09356
661 1 32.5126 3.65248 7.28993
662 1 34.3163 5.4553 7.28897
663 1 34.3163 3.6526 9.09353
664 1 32.5126 5.45428 9.09192
665 1 36.1201 3.65238 7.28983
666 1 37.9238 5.4562 7.28986
667 1 37.9239 3.6523 9.09341
668 1 36.121 5.4553 9.09356
669 1 39.7278 3.65224 7.28969
670 1 41.5315 5.45604 7.28978
671 1 41.5315 3.65229 9.09342
672 1 39.7277 5.45608 9.09341
673 1 0.0447483 7.25983 7.28978
674 1 1.84851 9.0636 7.28978
675 1 1.84851 7.25983 9.09341
676 1 0.0447483 9.0636 9.09341
677 1 3.65238 7.25988 7.28983
678 1 5.4553 9.06375 7.28897
679 1 5.4553 7.25902 9.09356
680 1 3.6526 9.06372 9.09353
681 1 7.25872 7.25872 7.28867
682 1 9.06518 9.06518 7.29406
683 1 9.06518 7.26411 9.09499
684 1 7.26411 9.06518 9.09499
685 1 10.8674 7.26902 7.29897
686 1 12.6696 9.06518 7.29406
687 1 12.6696 7.26411 9.09499
688 1 10.8674 9.09358 9.12339
689 1 14.476 7.25872 7.28867
690 1 16.2794 9.06375 7.28897
691 1 16.2794 7.25902 9.09356
692 1 14.4706 9.06518 9.09499
693 1 18.0824 7.25988 7.28983
694 1 19.8862 9.0636 7.28978
695 1 19.8862 7.25983 9.09341
696 1 18.0821 9.06372 9.09353
697 1 21.69 7.25983 7.28978
698 1 23.4938 9.0636 7.28978
699 1 23.4938 7.25983 9.09341
700 1 21.69 9.0636 9.09341
701 1 25.2976 7.25988 7.28983
702 1 27.1006 9.06375 7.28897
703 1 27.1006 7.25902 9.09356
704 1 25.2979 9.06372 9.09353
705 1 28.904 7.25872 7.28867
706 1 30.7104 9.06518 7.29406
707 1 30.7104 7.26411 9.09499
708 1 28.9094 9.06518 9.09499
709 1 32.5126 7.26902 7.29897
710 1 34.3148 9.06518 7.29406
711 1 34.3148 7.26411 9.09499
712 1 32.5126 9.09358 9.12339
713 1 36.1213 7.25872 7.28867
714 1 37.9247 9.06375 7.28897
715 1 37.9247 7.25902 9.09356
716 1 36.1159 9.06518 9.09499
717 1 39.7276 7.25988 7.28983
718 1 41.5315 9.0636 7.28978
719 1 41.5315 7.25983 9.09341
720 1 39.7274 9.06372 9.09353
721 1 0.0447483 10.8674 7.28979
722 1 1.84851 12.6711 7.28978
723 1 1.84851 10.8674 9.09341
724 1 0.0447483 12.6711 9.09341
725 1 3.65248 10.8674 7.28993
726 1 5.4553 12.671 7.28897
727 1 5.45428 10.8674 9.09192
728 1 3.6526 12.671 9.09353
729 1 7.26902 10.8674 7.29897
730 1 9.06518 12.6696 7.29406
731 1 9.09358 10.8674 9.12339
732 1 7.26411 12.6696 9.09499
733 1 10.8674 10.8674 7.27778
734 1 12.6696 12.6696 7.29406
735 1 12.6412 10.8674 9.12339
736 1 10.8674 12.6412 9.12339
737 1 14.4657 10.8674 7.29897
738 1 16.2794 12.671 7.28897
739 1 16.2805 10.8674 9.09192
740 1 14.4706 12.6696 9.09499
741 1 18.0823 10.8674 7.28993
742 1 19.8862 12.6711 7.28978
743 1 19.8862 10.8674 9.09341
744 1 18.0821 12.671 9.09353
745 1 21.69 10.8674 7.28979
746 1 23.4938 12.6711 7.28978
747 1 23.4938 10.8674 9.09341
748 1 21.69 12.6711 9.09341
749 1 25.2977 10.8674 7.28993
750 1 27.1006 12.671 7.28897
751 1 27.0995 10.8674 9.09192
752 1 25.2979 12.671 9.09353
753 1 28.9143 10.8674 7.29897
754 1 30.7104 12.6696 7.29406
755 1 30.7388 10.8674 9.12339
756 1 28.9094 12.6696 9.09499
757 1 32.5126 10.8674 7.27778
758 1 34.3148 12.6696 7.29406
759 1 34.2864 10.8674 9.12339
760 1 32.5126 12.6412 9.12339
761 1 36.111 10.8674 7.29897
762 1 37.9247 12.671 7.28897
763 1 37.9257 10.8674 9.09192
764 1 36.1159 12.6696 9.09499
765 1 39.7275 10.8674 7.28993
766 1 41.5315 12.6711 7.28978
767 1 41.5315 10.8674 9.09341
768 1 39.7274 12.671 9.09353
769 1 0.0447483 14.4749 7.28978
770 1 1.84853 16.2787 7.28978
771 1 1.84851 14.4749 9.09341
772 1 0.0447483 16.2787 9.09341
773 1 3.65238 14.4749 7.28983
774 1 5.4562 16.2786 7.28986
775 1 5.4553 14.4757 9.09356
776 1 3.6523 16.2787 9.09341
777 1 7.25872 14.476 7.28867
778 1 9.06375 16.2794 7.28897
779 1 9.06518 14.4706 9.09499
780 1 7.25902 16.2794 9.09356
781 1 10.8674 14.4657 7.29897
782 1 12.671 16.2794 7.28897
783 1 12.6696 14.4706 9.09499
784 1 10.8674 16.2805 9.09192
785 1 14.476 14.476 7.28867
786 1 16.2786 16.2786 7.28986
787 1 16.2794 14.4757 9.09356
788 1 14.4757 16.2794 9.09356
789 1 18.0824 14.4749 7.28983
790 1 19.8862 16.2787 7.28978
791 1 19.8862 14.4749 9.09341
792 1 18.0824 16.2787 9.09341
793 1 21.69 14.4749 7.28978
794 1 23.4938 16.2787 7.28978
795 1 23.4938 14.4749 9.09341
796 1 21.69 16.2787 9.09341
797 1 25.2976 14.4749 7.28983
798 1 27.1014 16.2786 7.28986
799 1 27.1006 14.4757 9.09356
800 1 25.2976 16.2787 9.09341
801 1 28.904 14.476 7.28867
802 1 30.709 16.2794 7.28897
803 1 30.7104 14.4706 9.09499
804 1 28.9043 16.2794 9.09356
805 1 32.5126 14.4657 7.29897
806 1 34.3163 16.2794 7.28897
807 1 34.3148 14.4706 9.09499
808 1 32.5126 16.2805 9.09192
809 1 36.1213 14.476 7.28867
810 1 37.9238 16.2786 7.28986
811 1 37.9247 14.4757 9.09356
812 1 36.121 16.2794 9.09356
813 1 39.7276 14.4749 7.28983
814 1 41.5315 16.2787 7.28978
815 1 41.5315 14.4749 9.09341
816 1 39.7277 16.2787 9.09341
817 1 0.0447483 18.0826 7.2896
818 1 1.84838 19.8864 7.28946
819 1 1.84852 18.0825 9.09342
820 1 0.0447483 19.8862 9.09342
821 1 3.65224 18.0825 7.28969
822 1 5.45604 19.8862 7.28978
823 1 5.45608 18.0824 9.09341
824 1 3.65229 19.8862 9.09342
825 1 7.25988 18.0824 7.28983
826 1 9.0636 19.8862 7.28978
827 1 9.06372 18.0821 9.09353
828 1 7.25983 19.8862 9.09341
829 1 10.8674 18.0823 7.28993
830 1 12.6711 19.8862 7.28978
831 1 12.671 18.0821 9.09353
832 1 10.8674 19.8862 9.09341
833 1 14.4749 18.0824 7.28983
834 1 16.2787 19.8862 7.28978
835 1 16.2787 18.0824 9.09341
836 1 14.4749 19.8862 9.09341
837 1 18.0825 18.0825 7.28969
838 1 19.8864 19.8864 7.28946
839 1 19.8862 18.0825 9.09342
840 1 18.0825 19.8862 9.09342
841 1 21.69 18.0826 7.2896
842 1 23.4936 19.8864 7.28946
843 1 23.4938 18.0825 9.09342
844 1 21.69 19.8862 9.09342
845 1 25.2975 18.0825 7.28969
846 1 27.1013 19.8862 7.28978
847 1 27.1013 18.0824 9.09341
848 1 25.2975 19.8862 9.09342
849 1 28.9051 18.0824 7.28983
850 1 30.7089 19.8862 7.28978
851 1 30.709 18.0821 9.09353
852 1 28.9051 19.8862 9.09341
853 1 32.5126 18.0823 7.28993
854 1 34.3164 19.8862 7.28978
855 1 34.3163 18.0821 9.09353
856 1 32.5126 19.8862 9.09341
857 1 36.1201 18.0824 7.28983
858 1 37.924 19.8862 7.28978
859 1 37.9239 18.0824 9.09341
860 1 36.1202 19.8862 9.09341
861 1 39.7278 18.0825 7.28969
862 1 41.5316 19.8864 7.28946
863 1 41.5315 18.0825 9.09342
864 1 39.7277 19.8862 9.09342
865 1 0.0447483 0.0447483 10.8972
866 1 1.84852 1.84852 10.8972
867 1 1.84852 0.0447483 12.701
868 1 0.0447483 1.84852 12.701
869 1 3.65229 0.0447483 10.8972
870 1 5.45606 1.84852 10.8972
871 1 5.45606 0.0447483 12.701
872 1 3.65229 1.84852 12.701
873 1 7.25983 0.0447483 10.8972
874 1 9.0636 1.84851 10.8972
875 1 9.0636 0.0447483 12.701
876 1 7.25983 1.84851 12.701
877 1 10.8674 0.0447483 10.8972
878 1 12.6711 1.84851 10.8972
879 1 12.6711 0.0447483 12.701
880 1 10.8674 1.84851 12.701
881 1 14.4749 0.0447483 10.8972
882 1 16.2787 1.84852 10.8972
883 1 16.2787 0.0447483 12.701
884 1 14.4749 1.84851 12.701
885 1 18.0825 0.0447483 10.8972
886 1 19.8862 1.84852 10.8972
887 1 19.8862 0.0447483 12.701
888 1 18.0825 1.84852 12.701
889 1 21.69 0.0447483 10.8972
890 1 23.4938 1.84852 10.8972
891 1 23.4938 0.0447483 12.701
892 1 21.69 1.84852 12.701
893 1 25.2975 0.0447483 10.8972
894 1 27.1013 1.84852 10.8972
895 1 27.1013 0.0447483 12.701
896 1 25.2975 1.84852 12.701
897 1 28.9051 0.0447483 10.8972
898 1 30.7089 1.84851 10.8972
899 1 30.7089 0.0447483 12.701
900 1 28.9051 1.84851 12.701
901 1 32.5126 0.0447483 10.8972
902 1 34.3164 1.84851 10.8972
903 1 34.3164 0.0447483 12.701
904 1 32.5126 1.84851 12.701
905 1 36.1202 0.0447483 10.8972
906 1 37.9239 1.84852 10.8972
907 1 37.9239 0.0447483 12.701
908 1 36.1202 1.84851 12.701
909 1 39.7277 0.0447483 10.8972
910 1 41.5315 1.84852 10.8972
911 1 41.5315 0.0447483 12.701
912 1 39.7277 1.84852 12.701
913 1 0.0447483 3.65229 10.8972
914 1 1.84852 5.45606 10.8972
915 1 1.84852 3.65229 12.701
916 1 0.0447483 5.45606 12.701
917 1 3.65229 3.65229 10.8972
918 1 5.45654 5.45654 10.8972
919 1 5.45608 3.6523 12.701
920 1 3.6523 5.45608 12.701
921 1 7.25998 3.65248 10.8972
922 1 9.06211 5.45428 10.8972
923 1 9.06372 3.6526 12.7009
924 1 7.25902 5.4553 12.7008
925 1 10.8674 3.65269 10.8972
926 1 12.6726 5.45428 10.8972
927 1 12.671 3.6526 12.7009
928 1 10.8674 5.45428 12.7025
929 1 14.4748 3.65248 10.8972
930 1 16.2782 5.45654 10.8972
931 1 16.2787 3.6523 12.701
932 1 14.4757 5.4553 12.7008
933 1 18.0825 3.65229 10.8972
934 1 19.8862 5.45606 10.8972
935 1 19.8862 3.65229 12.701
936 1 18.0824 5.45608 12.701
937 1 21.69 3.65229 10.8972
938 1 23.4938 5.45606 10.8972
939 1 23.4938 3.65229 12.701
940 1 21.69 5.45606 12.701
941 1 25.2975 3.65229 10.8972
942 1 27.1018 5.45654 10.8972
943 1 27.1013 3.6523 12.701
944 1 25.2976 5.45608 12.701
945 1 28.9052 3.65248 10.8972
946 1 30.7074 5.45428 10.8972
947 1 30.709 3.6526 12.7009
948 1 28.9043 5.4553 12.7008
949 1 32.5126 3.65269 10.8972
950 1 34.3179 5.45428 10.8972
951 1 34.3163 3.6526 12.7009
952 1 32.5126 5.45428 12.7025
953 1 36.12 3.65248 10.8972
954 1 37.9235 5.45654 10.8972
955 1 37.9239 3.6523 12.701
956 1 36.121 5.4553 12.7008
957 1 39.7277 3.65229 10.8972
958 1 41.5315 5.45606 10.8972
959 1 41.5315 3.65229 12.701
960 1 39.7277 5.45608 12.701
961 1 0.0447483 7.25983 10.8972
962 1 1.84851 9.0636 10.8972
963 1 1.84851 7.25983 12.701
964 1 0.0447483 9.0636 12.701
965 1 3.65248 7.25998 10.8972
966 1 5.45428 9.06211 10.8972
967 1 5.4553 7.25902 12.7008
968 1 3.6526 9.06372 12.7009
969 1 7.26902 7.26902 10.8972
970 1 9.09358 9.09358 10.8972
971 1 9.06518 7.26411 12.6994
972 1 7.26411 9.06518 12.6994
973 1 10.8674 7.24785 10.8972
974 1 12.6412 9.09358 10.8972
975 1 12.6696 7.26411 12.6994
976 1 10.8674 9.09358 12.671
977 1 14.4657 7.26902 10.8972
978 1 16.2805 9.06211 10.8972
979 1 16.2794 7.25902 12.7008
980 1 14.4706 9.06518 12.6994
981 1 18.0823 7.25998 10.8972
982 1 19.8862 9.0636 10.8972
983 1 19.8862 7.25983 12.701
984 1 18.0821 9.06372 12.7009
985 1 21.69 7.25983 10.8972
986 1 23.4938 9.0636 10.8972
987 1 23.4938 7.25983 12.701
988 1 21.69 9.0636 12.701
989 1 25.2977 7.25998 10.8972
990 1 27.0995 9.06211 10.8972