ITEM: TIMESTEP
0
ITEM: NUMBER OF ATOMS
2046
ITEM: BOX BOUNDS pp pp pp
2.5432227144818924e-03 3.2397456777285512e+01
2.5432227144818924e-03 3.2397456777285512e+01
2.5432227144818924e-03 3.2397456777285512e+01
ITEM: ATOMS id type xu yu zu
1 1 12.1506 30.3728 14.1753
2 1 1.9919 1.9919 0.00254322
3 1 1.9919 0.00254322 1.9919
4 1 0.00254322 1.9919 1.9919
5 1 4.04065 0.00254322 0.00254322
6 1 6.07479 2.02668 0.00254322
7 1 6.07479 0.00254322 2.02668
8 1 4.05758 2.03043 2.03043
9 1 8.10107 0.00254322 0.00254322
10 1 10.1259 2.02722 0.00254322
11 1 10.1259 0.00254322 2.02722
12 1 8.10119 2.0272 2.0272
13 1 12.1506 0.00254322 0.00254322
14 1 14.1753 2.02723 0.00254322
15 1 14.1753 0.00254322 2.02723
16 1 12.1506 2.02723 2.02723
17 1 0.00254322 4.04065 0.00254322
18 1 2.02668 6.07479 0.00254322
19 1 2.03043 4.05758 2.03043
20 1 0.00254322 6.07479 2.02668
21 1 4.04632 4.04632 0.00254322
22 1 6.07637 6.07637 0.00254322
23 1 6.07636 4.0518 2.0271
24 1 4.0518 6.07636 2.0271
25 1 8.10121 4.05187 0.00254322
26 1 10.126 6.07659 0.00254322
27 1 10.126 4.05191 2.02723
28 1 8.10125 6.07657 2.02722
29 1 12.1506 4.05191 0.00254322
30 1 14.1753 6.07659 0.00254322
31 1 14.1753 4.05191 2.02723
32 1 12.1506 6.07659 2.02723
33 1 0.00254322 8.10107 0.00254322
34 1 2.02722 10.1259 0.00254322
35 1 2.0272 8.10119 2.0272
36 1 0.00254322 10.1259 2.02722
37 1 4.05187 8.10121 0.00254322
38 1 6.07659 10.126 0.00254322
39 1 6.07657 8.10125 2.02722
40 1 4.05191 10.126 2.02723
41 1 8.10127 8.10127 0.00254322
42 1 10.126 10.126 0.00254322
43 1 10.126 8.10127 2.02723
44 1 8.10127 10.126 2.02723
45 1 12.1506 8.10127 0.00254322
46 1 14.1753 10.126 0.00254322
47 1 14.1753 8.10127 2.02723
48 1 12.1506 10.126 2.02723
49 1 0.00254322 12.1506 0.00254322
50 1 2.02723 14.1753 0.00254322
51 1 2.02723 12.1506 2.02723
52 1 0.00254322 14.1753 2.02723
53 1 4.05191 12.1506 0.00254322
54 1 6.07659 14.1753 0.00254322
55 1 6.07659 12.1506 2.02723
56 1 4.05191 14.1753 2.02723
57 1 8.10127 12.1506 0.00254322
58 1 10.126 14.1753 0.00254322
59 1 10.126 12.1506 2.02723
60 1 8.10127 14.1753 2.02723
61 1 12.1506 12.1506 0.00254322
62 1 14.1753 14.1753 0.00254322
63 1 14.1753 12.1506 2.02723
64 1 12.1506 14.1753 2.02723
65 1 0.00254322 16.2 0.00254322
66 1 2.02723 18.2247 0.00254322
67 1 2.02723 16.2 2.02723
68 1 0.00254322 18.2247 2.02723
69 1 4.05191 16.2 0.00254322
70 1 6.07659 18.2247 0.00254322
71 1 6.07659 16.2 2.02723
72 1 4.05191 18.2247 2.02723
73 1 8.10127 16.2 0.00254322
74 1 10.126 18.2247 0.00254322
75 1 10.126 16.2 2.02723
76 1 8.10127 18.2247 2.02723
77 1 12.1506 16.2 0.00254322
78 1 14.1753 18.2247 0.00254322
79 1 14.1753 16.2 2.02723
80 1 12.1506 18.2247 2.02723
81 1 0.00254322 20.2494 0.00254322
82 1 2.02722 22.2741 0.00254322
83 1 2.02723 20.2494 2.02723
84 1 0.00254322 22.2741 2.02722
85 1 4.05191 20.2494 0.00254322
86 1 6.07659 22.274 0.00254322
87 1 6.07659 20.2494 2.02723
88 1 4.05191 22.274 2.02723
89 1 8.10127 20.2494 0.00254322
90 1 10.126 22.274 0.00254322
91 1 10.126 20.2494 2.02723
92 1 8.10127 22.274 2.02723
93 1 12.1506 20.2494 0.00254322
94 1 14.1753 22.274 0.00254322
95 1 14.1753 20.2494 2.02723
96 1 12.1506 22.274 2.02723
97 1 0.00254322 24.2989 0.00254322
98 1 2.02668 26.3252 0.00254322
99 1 2.0272 24.2988 2.0272
100 1 0.00254322 26.3252 2.02668
101 1 4.05187 24.2988 0.00254322
102 1 6.07637 26.3236 0.00254322
103 1 6.07657 24.2987 2.02722
104 1 4.0518 26.3236 2.0271
105 1 8.10127 24.2987 0.00254322
106 1 10.126 26.3234 0.00254322
107 1 10.126 24.2987 2.02723
108 1 8.10125 26.3234 2.02722
109 1 12.1506 24.2987 0.00254322
110 1 14.1753 26.3234 0.00254322
111 1 14.1753 24.2987 2.02723
112 1 12.1506 26.3234 2.02723
113 1 0.00254322 28.3594 0.00254322
114 1 1.9919 30.4081 0.00254322
115 1 2.03043 28.3424 2.03043
116 1 0.00254322 30.4081 1.9919
117 1 4.04632 28.3537 0.00254322
118 1 6.07479 30.3733 0.00254322
119 1 6.07636 28.3482 2.0271
120 1 4.05758 30.3696 2.03043
121 1 8.10121 28.3481 0.00254322
122 1 10.1259 30.3728 0.00254322
123 1 10.126 28.3481 2.02723
124 1 8.10119 30.3728 2.0272
125 1 12.1506 28.3481 0.00254322
126 1 14.1753 30.3728 0.00254322
127 1 14.1753 28.3481 2.02723
128 1 12.1506 30.3728 2.02723
129 1 0.00254322 0.00254322 4.04065
130 1 2.03043 2.03043 4.05758
131 1 2.02668 0.00254322 6.07479
132 1 0.00254322 2.02668 6.07479
133 1 4.04632 0.00254322 4.04632
134 1 6.07636 2.0271 4.0518
135 1 6.07637 0.00254322 6.07637
136 1 4.0518 2.0271 6.07636
137 1 8.10121 0.00254322 4.05187
138 1 10.126 2.02723 4.05191
139 1 10.126 0.00254322 6.07659
140 1 8.10125 2.02722 6.07657
141 1 12.1506 0.00254322 4.05191
142 1 14.1753 2.02723 4.05191
143 1 14.1753 0.00254322 6.07659
144 1 12.1506 2.02723 6.07659
145 1 0.00254322 4.04632 4.04632
146 1 2.0271 6.07636 4.0518
147 1 2.0271 4.0518 6.07636
148 1 0.00254322 6.07637 6.07637
149 1 4.05173 4.05173 4.05173
150 1 6.07657 6.07657 4.0519
151 1 6.07657 4.0519 6.07657
152 1 4.0519 6.07657 6.07657
153 1 8.10126 4.0519 4.0519
154 1 10.126 6.07659 4.05191
155 1 10.126 4.05191 6.07659
156 1 8.10127 6.07659 6.07659
157 1 12.1506 4.05191 4.05191
158 1 14.1753 6.07659 4.05191
159 1 14.1753 4.05191 6.07659
160 1 12.1506 6.07659 6.07659
161 1 0.00254322 8.10121 4.05187
162 1 2.02723 10.126 4.05191
163 1 2.02722 8.10125 6.07657
164 1 0.00254322 10.126 6.07659
165 1 4.0519 8.10126 4.0519
166 1 6.07659 10.126 4.05191
167 1 6.07659 8.10127 6.07659
168 1 4.05191 10.126 6.07659
169 1 8.10127 8.10127 4.05191
170 1 10.126 10.126 4.05191
171 1 10.126 8.10127 6.07659
172 1 8.10127 10.126 6.07659
173 1 12.1506 8.10127 4.05191
174 1 14.1753 10.126 4.05191
175 1 14.1753 8.10127 6.07659
176 1 12.1506 10.126 6.07659
177 1 0.00254322 12.1506 4.05191
178 1 2.02723 14.1753 4.05191
179 1 2.02723 12.1506 6.07659
180 1 0.00254322 14.1753 6.07659
181 1 4.05191 12.1506 4.05191
182 1 6.07659 14.1753 4.05191
183 1 6.07659 12.1506 6.07659
184 1 4.05191 14.1753 6.07659
185 1 8.10127 12.1506 4.05191
186 1 10.126 14.1753 4.05191
187 1 10.126 12.1506 6.07659
188 1 8.10127 14.1753 6.07659
189 1 12.1506 12.1506 4.05191
190 1 14.1753 14.1753 4.05191
191 1 14.1753 12.1506 6.07659
192 1 12.1506 14.1753 6.07659
193 1 0.00254322 16.2 4.05191
194 1 2.02723 18.2247 4.05191
195 1 2.02723 16.2 6.07659
196 1 0.00254322 18.2247 6.07659
197 1 4.05191 16.2 4.05191
198 1 6.07659 18.2247 4.05191
199 1 6.07659 16.2 6.07659
200 1 4.05191 18.2247 6.07659
201 1 8.10127 16.2 4.05191
202 1 10.126 18.2247 4.05191
203 1 10.126 16.2 6.07659
204 1 8.10127 18.2247 6.07659
205 1 12.1506 16.2 4.05191
206 1 14.1753 18.2247 4.05191
207 1 14.1753 16.2 6.0766
208 1 12.1506 18.2247 6.07659
209 1 0.00254322 20.2494 4.05191
210 1 2.02723 22.274 4.05191
211 1 2.02723 20.2494 6.07659
212 1 0.00254322 22.274 6.07659
213 1 4.05191 20.2494 4.05191
214 1 6.07659 22.274 4.05191
215 1 6.07659 20.2494 6.07659
216 1 4.05191 22.274 6.07659
217 1 8.10127 20.2494 4.05191
218 1 10.126 22.274 4.05191
219 1 10.126 20.2494 6.07659
220 1 8.10127 22.274 6.07659
221 1 12.1506 20.2494 4.05191
222 1 14.1753 22.274 4.05191
223 1 14.1753 20.2494 6.07659
224 1 12.1506 22.274 6.07659
225 1 0.00254322 24.2988 4.05187
226 1 2.0271 26.3236 4.0518
227 1 2.02722 24.2987 6.07657
228 1 0.00254322 26.3236 6.07637
229 1 4.0519 24.2987 4.0519
230 1 6.07657 26.3234 4.0519
231 1 6.07659 24.2987 6.07659
232 1 4.0519 26.3234 6.07657
233 1 8.10127 24.2987 4.05191
234 1 10.126 26.3234 4.05191
235 1 10.126 24.2987 6.07659
236 1 8.10127 26.3234 6.07659
237 1 12.1506 24.2987 4.05191
238 1 14.1753 26.3234 4.05191
239 1 14.1753 24.2987 6.07659
240 1 12.1506 26.3234 6.07659
241 1 0.00254322 28.3537 4.04632
242 1 2.03043 30.3696 4.05758
243 1 2.0271 28.3482 6.07636
244 1 0.00254322 30.3733 6.07479
245 1 4.05173 28.3483 4.05173
246 1 6.07636 30.3729 4.0518
247 1 6.07657 28.3481 6.07657
248 1 4.0518 30.3729 6.07636
249 1 8.10126 28.3481 4.0519
250 1 10.126 30.3728 4.05191
251 1 10.126 28.3481 6.07659
252 1 8.10125 30.3728 6.07657
253 1 12.1506 28.3481 4.05191
254 1 14.1753 30.3728 4.05191
255 1 14.1753 28.3481 6.07659
256 1 12.1506 30.3728 6.07659
257 1 0.00254322 0.00254322 8.10107
258 1 2.0272 2.0272 8.10119
259 1 2.02722 0.00254322 10.1259
260 1 0.00254322 2.02722 10.1259
261 1 4.05187 0.00254322 8.10121
262 1 6.07657 2.02722 8.10125
263 1 6.07659 0.00254322 10.126
264 1 4.05191 2.02723 10.126
265 1 8.10127 0.00254322 8.10127
266 1 10.126 2.02723 8.10127
267 1 10.126 0.00254322 10.126
268 1 8.10127 2.02723 10.126
269 1 12.1506 0.00254322 8.10127
270 1 14.1753 2.02723 8.10127
271 1 14.1753 0.00254322 10.126
272 1 12.1506 2.02723 10.126
273 1 0.00254322 4.05187 8.10121
274 1 2.02722 6.07657 8.10125
275 1 2.02723 4.05191 10.126
276 1 0.00254322 6.07659 10.126
277 1 4.0519 4.0519 8.10126
278 1 6.07659 6.07659 8.10127
279 1 6.07659 4.05191 10.126
280 1 4.05191 6.07659 10.126
281 1 8.10127 4.05191 8.10127
282 1 10.126 6.07659 8.10127
283 1 10.126 4.05191 10.126
284 1 8.10127 6.07659 10.126
285 1 12.1506 4.05191 8.10127
286 1 14.1753 6.07659 8.10127
287 1 14.1753 4.05191 10.126
288 1 12.1506 6.07659 10.126
289 1 0.00254322 8.10127 8.10127
290 1 2.02723 10.126 8.10127
291 1 2.02723 8.10127 10.126
292 1 0.00254322 10.126 10.126
293 1 4.05191 8.10127 8.10127
294 1 6.07659 10.126 8.10127
295 1 6.07659 8.10127 10.126
296 1 4.05191 10.126 10.126
297 1 8.10127 8.10127 8.10127
298 1 10.126 10.126 8.10127
299 1 10.126 8.10127 10.126
300 1 8.10127 10.126 10.126
301 1 12.1506 8.10127 8.10127
302 1 14.1753 10.126 8.10129
303 1 14.1753 8.10129 10.126
304 1 12.1506 10.126 10.126
305 1 0.00254322 12.1506 8.10127
306 1 2.02723 14.1753 8.10127
307 1 2.02723 12.1506 10.126
308 1 0.00254322 14.1753 10.126
309 1 4.05191 12.1506 8.10127
310 1 6.07659 14.1753 8.10127
311 1 6.07659 12.1506 10.126
312 1 4.05191 14.1753 10.126
313 1 8.10127 12.1506 8.10127
314 1 10.126 14.1753 8.10129
315 1 10.126 12.1506 10.126
316 1 8.10129 14.1753 10.126
317 1 12.1506 12.1506 8.10128
318 1 14.1753 14.1753 8.10135
319 1 14.1754 12.1507 10.1262
320 1 12.1507 14.1754 10.1262
321 1 0.00254322 16.2 8.10127
322 1 2.02723 18.2247 8.10127
323 1 2.02723 16.2 10.126
324 1 0.00254322 18.2247 10.126
325 1 4.05191 16.2 8.10127
326 1 6.07659 18.2247 8.10127
327 1 6.07659 16.2 10.126
328 1 4.05191 18.2247 10.126
329 1 8.10127 16.2 8.10127
330 1 10.126 18.2247 8.10129
331 1 10.1262 16.2 10.1262
332 1 8.10129 18.2247 10.126
333 1 12.1507 16.2 8.10134
334 1 14.1753 18.2247 8.10135
335 1 14.1759 16.2 10.1278
336 1 12.1507 18.2246 10.1262
337 1 0.00254322 20.2494 8.10127
338 1 2.02723 22.274 8.10127
339 1 2.02723 20.2494 10.126
340 1 0.00254322 22.274 10.126
341 1 4.05191 20.2494 8.10127
342 1 6.07659 22.274 8.10127
343 1 6.07659 20.2494 10.126
344 1 4.05191 22.274 10.126
345 1 8.10127 20.2494 8.10127
346 1 10.126 22.274 8.10127
347 1 10.126 20.2494 10.126
348 1 8.10127 22.274 10.126
349 1 12.1506 20.2494 8.10128
350 1 14.1753 22.274 8.10129
351 1 14.1754 20.2493 10.1262
352 1 12.1506 22.274 10.126
353 1 0.00254322 24.2987 8.10127
354 1 2.02722 26.3234 8.10125
355 1 2.02723 24.2987 10.126
356 1 0.00254322 26.3234 10.126
357 1 4.05191 24.2987 8.10127
358 1 6.07659 26.3234 8.10127
359 1 6.07659 24.2987 10.126
360 1 4.05191 26.3234 10.126
361 1 8.10127 24.2987 8.10127
362 1 10.126 26.3234 8.10127
363 1 10.126 24.2987 10.126
364 1 8.10127 26.3234 10.126
365 1 12.1506 24.2987 8.10127
366 1 14.1753 26.3234 8.10127
367 1 14.1753 24.2987 10.126
368 1 12.1506 26.3234 10.126
369 1 0.00254322 28.3481 8.10121
370 1 2.0272 30.3728 8.10119
371 1 2.02723 28.3481 10.126
372 1 0.00254322 30.3728 10.1259
373 1 4.0519 28.3481 8.10126
374 1 6.07657 30.3728 8.10125
375 1 6.07659 28.3481 10.126
376 1 4.05191 30.3728 10.126
377 1 8.10127 28.3481 8.10127
378 1 10.126 30.3728 8.10127
379 1 10.126 28.3481 10.126
380 1 8.10127 30.3728 10.126
381 1 12.1506 28.3481 8.10127
382 1 14.1753 30.3728 8.10127
383 1 14.1753 28.3481 10.126
384 1 12.1506 30.3728 10.126
385 1 0.00254322 0.00254322 12.1506
386 1 2.02723 2.02723 12.1506
387 1 2.02723 0.00254322 14.1753
388 1 0.00254322 2.02723 14.1753
389 1 4.05191 0.00254322 12.1506
390 1 6.07659 2.02723 12.1506
391 1 6.07659 0.00254322 14.1753
392 1 4.05191 2.02723 14.1753
393 1 8.10127 0.00254322 12.1506
394 1 10.126 2.02723 12.1506
395 1 10.126 0.00254322 14.1753
396 1 8.10127 2.02723 14.1753
397 1 12.1506 0.00254322 12.1506
398 1 14.1753 2.02723 12.1506
399 1 14.1753 0.00254322 14.1753
400 1 12.1506 2.02723 14.1753
401 1 0.00254322 4.05191 12.1506
402 1 2.02723 6.07659 12.1506
403 1 2.02723 4.05191 14.1753
404 1 0.00254322 6.07659 14.1753
405 1 4.05191 4.05191 12.1506
406 1 6.07659 6.07659 12.1506
407 1 6.07659 4.05191 14.1753
408 1 4.05191 6.07659 14.1753
409 1 8.10127 4.05191 12.1506
410 1 10.126 6.07659 12.1506
411 1 10.126 4.05191 14.1753
412 1 8.10127 6.07659 14.1753
413 1 12.1506 4.05191 12.1506
414 1 14.1753 6.07659 12.1506
415 1 14.1753 4.05191 14.1753
416 1 12.1506 6.07659 14.1753
417 1 0.00254322 8.10127 12.1506
418 1 2.02723 10.126 12.1506
419 1 2.02723 8.10127 14.1753
420 1 0.00254322 10.126 14.1753
421 1 4.05191 8.10127 12.1506
422 1 6.07659 10.126 12.1506
423 1 6.07659 8.10127 14.1753
424 1 4.05191 10.126 14.1753
425 1 8.10127 8.10127 12.1506
426 1 10.126 10.126 12.1506
427 1 10.126 8.10129 14.1753
428 1 8.10129 10.126 14.1753
429 1 12.1506 8.10128 12.1506
430 1 14.1754 10.1262 12.1507
431 1 14.1753 8.10135 14.1753
432 1 12.1507 10.1262 14.1754
433 1 0.00254322 12.1506 12.1506
434 1 2.02723 14.1753 12.1506
435 1 2.02723 12.1506 14.1753
436 1 0.00254322 14.1753 14.1753
437 1 4.05191 12.1506 12.1506
438 1 6.07659 14.1753 12.1506
439 1 6.07659 12.1506 14.1753
440 1 4.05191 14.1753 14.1753
441 1 8.10128 12.1506 12.1506
442 1 10.1262 14.1754 12.1507
443 1 10.1262 12.1507 14.1754
444 1 8.10135 14.1753 14.1753
445 1 12.1508 12.1508 12.1508
446 1 14.1721 14.1721 12.145
447 1 14.1721 12.145 14.1721
448 1 12.145 14.1721 14.1721
449 1 0.00254322 16.2 12.1506
450 1 2.02723 18.2247 12.1506
451 1 2.02723 16.2 14.1753
452 1 0.00254322 18.2247 14.1753
453 1 4.05191 16.2 12.1506
454 1 6.07659 18.2247 12.1506
455 1 6.0766 16.2 14.1753
456 1 4.05191 18.2247 14.1753
457 1 8.10134 16.2 12.1507
458 1 10.1262 18.2246 12.1507
459 1 10.1278 16.2 14.1759
460 1 8.10135 18.2247 14.1753
461 1 12.1562 16.2 12.1562
462 1 14.1721 18.2279 12.145
463 1 14.2106 16.2 14.2106
464 1 12.145 18.2279 14.1721
465 1 0.00254322 20.2494 12.1506
466 1 2.02723 22.274 12.1506
467 1 2.02723 20.2494 14.1753
468 1 0.00254322 22.274 14.1753
469 1 4.05191 20.2494 12.1506
470 1 6.07659 22.274 12.1506
471 1 6.07659 20.2494 14.1753
472 1 4.05191 22.274 14.1753
473 1 8.10128 20.2494 12.1506
474 1 10.126 22.274 12.1506
475 1 10.1262 20.2493 14.1754
476 1 8.10129 22.274 14.1753
477 1 12.1508 20.2492 12.1508
478 1 14.1754 22.2738 12.1507
479 1 14.1721 20.255 14.1721
480 1 12.1507 22.2738 14.1754
481 1 0.00254322 24.2987 12.1506
482 1 2.02723 26.3234 12.1506
483 1 2.02723 24.2987 14.1753
484 1 0.00254322 26.3234 14.1753
485 1 4.05191 24.2987 12.1506
486 1 6.07659 26.3234 12.1506
487 1 6.07659 24.2987 14.1753
488 1 4.05191 26.3234 14.1753
489 1 8.10127 24.2987 12.1506
490 1 10.126 26.3234 12.1506
491 1 10.126 24.2987 14.1753
492 1 8.10127 26.3234 14.1753
493 1 12.1506 24.2987 12.1506
494 1 14.1753 26.3234 12.1506
495 1 14.1753 24.2987 14.1753
496 1 12.1506 26.3234 14.1753
497 1 0.00254322 28.3481 12.1506
498 1 2.02723 30.3728 12.1506
499 1 2.02723 28.3481 14.1753
500 1 0.00254322 30.3728 14.1753
501 1 4.05191 28.3481 12.1506
502 1 6.07659 30.3728 12.1506
503 1 6.07659 28.3481 14.1753
504 1 4.05191 30.3728 14.1753
505 1 8.10127 28.3481 12.1506
506 1 10.126 30.3728 12.1506
507 1 10.126 28.3481 14.1753
508 1 8.10127 30.3728 14.1753
509 1 12.1506 28.3481 12.1506
510 1 14.1753 30.3728 12.1506
511 1 14.1753 28.3481 14.1753
512 1 0.00254322 0.00254322 16.2
513 1 2.02723 2.02723 16.2
514 1 2.02723 0.00254322 18.2247
515 1 0.00254322 2.02723 18.2247
516 1 4.05191 0.00254322 16.2
517 1 6.07659 2.02723 16.2
518 1 6.07659 0.00254322 18.2247
519 1 4.05191 2.02723 18.2247
520 1 8.10127 0.00254322 16.2
521 1 10.126 2.02723 16.2
522 1 10.126 0.00254322 18.2247
523 1 8.10127 2.02723 18.2247
524 1 12.1506 0.00254322 16.2
525 1 14.1753 2.02723 16.2
526 1 14.1753 0.00254322 18.2247
527 1 12.1506 2.02723 18.2247
528 1 0.00254322 4.05191 16.2
529 1 2.02723 6.07659 16.2
530 1 2.02723 4.05191 18.2247
531 1 0.00254322 6.07659 18.2247
532 1 4.05191 4.05191 16.2
533 1 6.07659 6.07659 16.2
534 1 6.07659 4.05191 18.2247
535 1 4.05191 6.07659 18.2247
536 1 8.10127 4.05191 16.2
537 1 10.126 6.07659 16.2
538 1 10.126 4.05191 18.2247
539 1 8.10127 6.07659 18.2247
540 1 12.1506 4.05191 16.2
541 1 14.1753 6.0766 16.2
542 1 14.1753 4.05191 18.2247
543 1 12.1506 6.07659 18.2247
544 1 0.00254322 8.10127 16.2
545 1 2.02723 10.126 16.2
546 1 2.02723 8.10127 18.2247
547 1 0.00254322 10.126 18.2247
548 1 4.05191 8.10127 16.2
549 1 6.07659 10.126 16.2
550 1 6.07659 8.10127 18.2247
551 1 4.05191 10.126 18.2247
552 1 8.10127 8.10127 16.2
553 1 10.1262 10.1262 16.2
554 1 10.126 8.10129 18.2247
555 1 8.10129 10.126 18.2247
556 1 12.1507 8.10134 16.2
557 1 14.1759 10.1278 16.2
558 1 14.1753 8.10135 18.2247
559 1 12.1507 10.1262 18.2246
560 1 0.00254322 12.1506 16.2
561 1 2.02723 14.1753 16.2
562 1 2.02723 12.1506 18.2247
563 1 0.00254322 14.1753 18.2247
564 1 4.05191 12.1506 16.2
565 1 6.0766 14.1753 16.2
566 1 6.07659 12.1506 18.2247
567 1 4.05191 14.1753 18.2247
568 1 8.10134 12.1507 16.2
569 1 10.1278 14.1759 16.2
570 1 10.1262 12.1507 18.2246
571 1 8.10135 14.1753 18.2247
572 1 12.1562 12.1562 16.2
573 1 14.2106 14.2106 16.2
574 1 14.1721 12.145 18.2279
575 1 12.145 14.1721 18.2279
576 1 0.00254322 16.2 16.2
577 1 2.02723 18.2247 16.2
578 1 2.02723 16.2 18.2247
579 1 0.00254322 18.2247 18.2247
580 1 4.05191 16.2 16.2
581 1 6.0766 18.2247 16.2
582 1 6.0766 16.2 18.2247
583 1 4.05191 18.2247 18.2247
584 1 8.10147 16.2 16.2
585 1 10.1278 18.2241 16.2
586 1 10.1278 16.2 18.2241
587 1 8.10135 18.2247 18.2247
588 1 12.1619 16.2 16.2
589 1 14.2106 18.1894 16.2
590 1 14.2106 16.2 18.1894
591 1 12.145 18.2279 18.2279
592 1 0.00254322 20.2494 16.2
593 1 2.02723 22.274 16.2
594 1 2.02723 20.2494 18.2247
595 1 0.00254322 22.274 18.2247
596 1 4.05191 20.2494 16.2
597 1 6.07659 22.274 16.2
598 1 6.07659 20.2494 18.2247
599 1 4.05191 22.274 18.2247
600 1 8.10134 20.2493 16.2
601 1 10.1262 22.2738 16.2
602 1 10.1262 20.2493 18.2246
603 1 8.10129 22.274 18.2247
604 1 12.1562 20.2438 16.2
605 1 14.1759 22.2722 16.2
606 1 14.1721 20.255 18.2279
607 1 12.1507 22.2738 18.2246
608 1 0.00254322 24.2987 16.2
609 1 2.02723 26.3234 16.2
610 1 2.02723 24.2987 18.2247
611 1 0.00254322 26.3234 18.2247
612 1 4.05191 24.2987 16.2
613 1 6.07659 26.3234 16.2
614 1 6.07659 24.2987 18.2247
615 1 4.05191 26.3234 18.2247
616 1 8.10127 24.2987 16.2
617 1 10.126 26.3234 16.2
618 1 10.126 24.2987 18.2247
619 1 8.10127 26.3234 18.2247
620 1 12.1507 24.2987 16.2
621 1 14.1753 26.3234 16.2
622 1 14.1753 24.2987 18.2247
623 1 12.1506 26.3234 18.2247
624 1 0.00254322 28.3481 16.2
625 1 2.02723 30.3728 16.2
626 1 2.02723 28.3481 18.2247
627 1 0.00254322 30.3728 18.2247
628 1 4.05191 28.3481 16.2
629 1 6.07659 30.3728 16.2
630 1 6.07659 28.3481 18.2247
631 1 4.05191 30.3728 18.2247
632 1 8.10127 28.3481 16.2
633 1 10.126 30.3728 16.2
634 1 10.126 28.3481 18.2247
635 1 8.10127 30.3728 18.2247
636 1 12.1506 28.3481 16.2
637 1 14.1753 30.3728 16.2
638 1 14.1753 28.3481 18.2247
639 1 12.1506 30.3728 18.2247
640 1 0.00254322 0.00254322 20.2494
641 1 2.02723 2.02723 20.2494
642 1 2.02722 0.00254322 22.2741
643 1 0.00254322 2.02722 22.2741
644 1 4.05191 0.00254322 20.2494
645 1 6.07659 2.02723 20.2494
646 1 6.07659 0.00254322 22.274
647 1 4.05191 2.02723 22.274
648 1 8.10127 0.00254322 20.2494
649 1 10.126 2.02723 20.2494
650 1 10.126 0.00254322 22.274
651 1 8.10127 2.02723 22.274
652 1 12.1506 0.00254322 20.2494
653 1 14.1753 2.02723 20.2494
654 1 14.1753 0.00254322 22.274
655 1 12.1506 2.02723 22.274
656 1 0.00254322 4.05191 20.2494
657 1 2.02723 6.07659 20.2494
658 1 2.02723 4.05191 22.274
659 1 0.00254322 6.07659 22.274
660 1 4.05191 4.05191 20.2494
661 1 6.07659 6.07659 20.2494
662 1 6.07659 4.05191 22.274
663 1 4.05191 6.07659 22.274
664 1 8.10127 4.05191 20.2494
665 1 10.126 6.07659 20.2494
666 1 10.126 4.05191 22.274
667 1 8.10127 6.07659 22.274
668 1 12.1506 4.05191 20.2494
669 1 14.1753 6.07659 20.2494
670 1 14.1753 4.05191 22.274
671 1 12.1506 6.07659 22.274
672 1 0.00254322 8.10127 20.2494
673 1 2.02723 10.126 20.2494
674 1 2.02723 8.10127 22.274
675 1 0.00254322 10.126 22.274
676 1 4.05191 8.10127 20.2494
677 1 6.07659 10.126 20.2494
678 1 6.07659 8.10127 22.274
679 1 4.05191 10.126 22.274
680 1 8.10127 8.10127 20.2494
681 1 10.126 10.126 20.2494
682 1 10.126 8.10127 22.274
683 1 8.10127 10.126 22.274
684 1 12.1506 8.10128 20.2494
685 1 14.1754 10.1262 20.2493
686 1 14.1753 8.10129 22.274
687 1 12.1506 10.126 22.274
688 1 0.00254322 12.1506 20.2494
689 1 2.02723 14.1753 20.2494
690 1 2.02723 12.1506 22.274
691 1 0.00254322 14.1753 22.274
692 1 4.05191 12.1506 20.2494
693 1 6.07659 14.1753 20.2494
694 1 6.07659 12.1506 22.274
695 1 4.05191 14.1753 22.274
696 1 8.10128 12.1506 20.2494
697 1 10.1262 14.1754 20.2493
698 1 10.126 12.1506 22.274
699 1 8.10129 14.1753 22.274
700 1 12.1508 12.1508 20.2492
701 1 14.1721 14.1721 20.255
702 1 14.1754 12.1507 22.2738
703 1 12.1507 14.1754 22.2738
704 1 0.00254322 16.2 20.2494
705 1 2.02723 18.2247 20.2494
706 1 2.02723 16.2 22.274
707 1 0.00254322 18.2247 22.274
708 1 4.05191 16.2 20.2494
709 1 6.07659 18.2247 20.2494
710 1 6.07659 16.2 22.274
711 1 4.05191 18.2247 22.274
712 1 8.10134 16.2 20.2493
713 1 10.1262 18.2246 20.2493
714 1 10.1262 16.2 22.2738
715 1 8.10129 18.2247 22.274
716 1 12.1562 16.2 20.2438
717 1 14.1721 18.2279 20.255
718 1 14.1759 16.2 22.2722
719 1 12.1507 18.2246 22.2738
720 1 0.00254322 20.2494 20.2494
721 1 2.02723 22.274 20.2494
722 1 2.02723 20.2494 22.274
723 1 0.00254322 22.274 22.274
724 1 4.05191 20.2494 20.2494
725 1 6.07659 22.274 20.2494
726 1 6.07659 20.2494 22.274
727 1 4.05191 22.274 22.274
728 1 8.10128 20.2494 20.2494
729 1 10.126 22.274 20.2494
730 1 10.126 20.2494 22.274
731 1 8.10127 22.274 22.274
732 1 12.1508 20.2492 20.2492
733 1 14.1754 22.2738 20.2493
734 1 14.1754 20.2493 22.2738
735 1 12.1506 22.274 22.274
736 1 0.00254322 24.2987 20.2494
737 1 2.02723 26.3234 20.2494
738 1 2.02723 24.2987 22.274
739 1 0.00254322 26.3234 22.274
740 1 4.05191 24.2987 20.2494
741 1 6.07659 26.3234 20.2494
742 1 6.07659 24.2987 22.274
743 1 4.05191 26.3234 22.274
744 1 8.10127 24.2987 20.2494
745 1 10.126 26.3234 20.2494
746 1 10.126 24.2987 22.274
747 1 8.10127 26.3234 22.274
748 1 12.1506 24.2987 20.2494
749 1 14.1753 26.3234 20.2494
750 1 14.1753 24.2987 22.274
751 1 12.1506 26.3234 22.274
752 1 0.00254322 28.3481 20.2494
753 1 2.02723 30.3728 20.2494
754 1 2.02723 28.3481 22.274
755 1 0.00254322 30.3728 22.2741
756 1 4.05191 28.3481 20.2494
757 1 6.07659 30.3728 20.2494
758 1 6.07659 28.3481 22.274
759 1 4.05191 30.3728 22.274
760 1 8.10127 28.3481 20.2494
761 1 10.126 30.3728 20.2494
762 1 10.126 28.3481 22.274
763 1 8.10127 30.3728 22.274
764 1 12.1506 28.3481 20.2494
765 1 14.1753 30.3728 20.2494
766 1 14.1753 28.3481 22.274
767 1 12.1506 30.3728 22.274
768 1 0.00254322 0.00254322 24.2989
769 1 2.0272 2.0272 24.2988
770 1 2.02668 0.00254322 26.3252
771 1 0.00254322 2.02668 26.3252
772 1 4.05187 0.00254322 24.2988
773 1 6.07657 2.02722 24.2987
774 1 6.07637 0.00254322 26.3236
775 1 4.0518 2.0271 26.3236
776 1 8.10127 0.00254322 24.2987
777 1 10.126 2.02723 24.2987
778 1 10.126 0.00254322 26.3234
779 1 8.10125 2.02722 26.3234
780 1 12.1506 0.00254322 24.2987
781 1 14.1753 2.02723 24.2987
782 1 14.1753 0.00254322 26.3234
783 1 12.1506 2.02723 26.3234
784 1 0.00254322 4.05187 24.2988
785 1 2.02722 6.07657 24.2987
786 1 2.0271 4.0518 26.3236
787 1 0.00254322 6.07637 26.3236
788 1 4.0519 4.0519 24.2987
789 1 6.07659 6.07659 24.2987
790 1 6.07657 4.0519 26.3234
791 1 4.0519 6.07657 26.3234
792 1 8.10127 4.05191 24.2987
793 1 10.126 6.07659 24.2987
794 1 10.126 4.05191 26.3234
795 1 8.10127 6.07659 26.3234
796 1 12.1506 4.05191 24.2987
797 1 14.1753 6.07659 24.2987
798 1 14.1753 4.05191 26.3234
799 1 12.1506 6.07659 26.3234
800 1 0.00254322 8.10127 24.2987
801 1 2.02723 10.126 24.2987
802 1 2.02722 8.10125 26.3234
803 1 0.00254322 10.126 26.3234
804 1 4.05191 8.10127 24.2987
805 1 6.07659 10.126 24.2987
806 1 6.07659 8.10127 26.3234
807 1 4.05191 10.126 26.3234
808 1 8.10127 8.10127 24.2987
809 1 10.126 10.126 24.2987
810 1 10.126 8.10127 26.3234
811 1 8.10127 10.126 26.3234
812 1 12.1506 8.10127 24.2987
813 1 14.1753 10.126 24.2987
814 1 14.1753 8.10127 26.3234
815 1 12.1506 10.126 26.3234
816 1 0.00254322 12.1506 24.2987
817 1 2.02723 14.1753 24.2987
818 1 2.02723 12.1506 26.3234
819 1 0.00254322 14.1753 26.3234
820 1 4.05191 12.1506 24.2987
821 1 6.07659 14.1753 24.2987
822 1 6.07659 12.1506 26.3234
823 1 4.05191 14.1753 26.3234
824 1 8.10127 12.1506 24.2987
825 1 10.126 14.1753 24.2987
826 1 10.126 12.1506 26.3234
827 1 8.10127 14.1753 26.3234
828 1 12.1506 12.1506 24.2987
829 1 14.1753 14.1753 24.2987
830 1 14.1753 12.1506 26.3234
831 1 12.1506 14.1753 26.3234
832 1 0.00254322 16.2 24.2987
833 1 2.02723 18.2247 24.2987
834 1 2.02723 16.2 26.3234
835 1 0.00254322 18.2247 26.3234
836 1 4.05191 16.2 24.2987
837 1 6.07659 18.2247 24.2987
838 1 6.07659 16.2 26.3234
839 1 4.05191 18.2247 26.3234
840 1 8.10127 16.2 24.2987
841 1 10.126 18.2247 24.2987
842 1 10.126 16.2 26.3234
843 1 8.10127 18.2247 26.3234
844 1 12.1507 16.2 24.2987
845 1 14.1753 18.2247 24.2987
846 1 14.1753 16.2 26.3234
847 1 12.1506 18.2247 26.3234
848 1 0.00254322 20.2494 24.2987
849 1 2.02723 22.274 24.2987
850 1 2.02723 20.2494 26.3234
851 1 0.00254322 22.274 26.3234
852 1 4.05191 20.2494 24.2987
853 1 6.07659 22.274 24.2987
854 1 6.07659 20.2494 26.3234
855 1 4.05191 22.274 26.3234
856 1 8.10127 20.2494 24.2987
857 1 10.126 22.274 24.2987
858 1 10.126 20.2494 26.3234
859 1 8.10127 22.274 26.3234
860 1 12.1506 20.2494 24.2987
861 1 14.1753 22.274 24.2987
862 1 14.1753 20.2494 26.3234
863 1 12.1506 22.274 26.3234
864 1 0.00254322 24.2987 24.2987
865 1 2.02722 26.3234 24.2987
866 1 2.02722 24.2987 26.3234
867 1 0.00254322 26.3236 26.3236
868 1 4.05191 24.2987 24.2987
869 1 6.07659 26.3234 24.2987
870 1 6.07659 24.2987 26.3234
871 1 4.0519 26.3234 26.3234
872 1 8.10127 24.2987 24.2987
873 1 10.126 26.3234 24.2987
874 1 10.126 24.2987 26.3234
875 1 8.10127 26.3234 26.3234
876 1 12.1506 24.2987 24.2987
877 1 14.1753 26.3234 24.2987
878 1 14.1753 24.2987 26.3234
879 1 12.1506 26.3234 26.3234
880 1 0.00254322 28.3481 24.2988
881 1 2.0272 30.3728 24.2988
882 1 2.0271 28.3482 26.3236
883 1 0.00254322 30.3733 26.3252
884 1 4.0519 28.3481 24.2987
885 1 6.07657 30.3728 24.2987
886 1 6.07657 28.3481 26.3234
887 1 4.0518 30.3729 26.3236
888 1 8.10127 28.3481 24.2987
889 1 10.126 30.3728 24.2987
890 1 10.126 28.3481 26.3234
891 1 8.10125 30.3728 26.3234
892 1 12.1506 28.3481 24.2987
893 1 14.1753 30.3728 24.2987
894 1 14.1753 28.3481 26.3234
895 1 12.1506 30.3728 26.3234
896 1 0.00254322 0.00254322 28.3594
897 1 2.03043 2.03043 28.3424
898 1 1.9919 0.00254322 30.4081
899 1 0.00254322 1.9919 30.4081
900 1 4.04632 0.00254322 28.3537
901 1 6.07636 2.0271 28.3482
902 1 6.07479 0.00254322 30.3733
903 1 4.05758 2.03043 30.3696
904 1 8.10121 0.00254322 28.3481
905 1 10.126 2.02723 28.3481
906 1 10.1259 0.00254322 30.3728
907 1 8.10119 2.0272 30.3728
908 1 12.1506 0.00254322 28.3481
909 1 14.1753 2.02723 28.3481
910 1 14.1753 0.00254322 30.3728
911 1 12.1506 2.02723 30.3728
912 1 0.00254322 4.04632 28.3537
913 1 2.0271 6.07636 28.3482
914 1 2.03043 4.05758 30.3696
915 1 0.00254322 6.07479 30.3733
916 1 4.05173 4.05173 28.3483
917 1 6.07657 6.07657 28.3481
918 1 6.07636 4.0518 30.3729
919 1 4.0518 6.07636 30.3729
920 1 8.10126 4.0519 28.3481
921 1 10.126 6.07659 28.3481
922 1 10.126 4.05191 30.3728
923 1 8.10125 6.07657 30.3728
924 1 12.1506 4.05191 28.3481
925 1 14.1753 6.07659 28.3481
926 1 14.1753 4.05191 30.3728
927 1 12.1506 6.07659 30.3728
928 1 0.00254322 8.10121 28.3481
929 1 2.02723 10.126 28.3481
930 1 2.0272 8.10119 30.3728
931 1 0.00254322 10.1259 30.3728
932 1 4.0519 8.10126 28.3481
933 1 6.07659 10.126 28.3481
934 1 6.07657 8.10125 30.3728
935 1 4.05191 10.126 30.3728
936 1 8.10127 8.10127 28.3481
937 1 10.126 10.126 28.3481
938 1 10.126 8.10127 30.3728
939 1 8.10127 10.126 30.3728
940 1 12.1506 8.10127 28.3481
941 1 14.1753 10.126 28.3481
942 1 14.1753 8.10127 30.3728
943 1 12.1506 10.126 30.3728
944 1 0.00254322 12.1506 28.3481
945 1 2.02723 14.1753 28.3481
946 1 2.02723 12.1506 30.3728
947 1 0.00254322 14.1753 30.3728
948 1 4.05191 12.1506 28.3481
949 1 6.07659 14.1753 28.3481
950 1 6.07659 12.1506 30.3728
951 1 4.05191 14.1753 30.3728
952 1 8.10127 12.1506 28.3481
953 1 10.126 14.1753 28.3481
954 1 10.126 12.1506 30.3728
955 1 8.10127 14.1753 30.3728
956 1 12.1506 12.1506 28.3481
957 1 14.1753 14.1753 28.3481
958 1 14.1753 12.1506 30.3728
959 1 12.1506 14.1753 30.3728
960 1 0.00254322 16.2 28.3481
961 1 2.02723 18.2247 28.3481
962 1 2.02723 16.2 30.3728
963 1 0.00254322 18.2247 30.3728
964 1 4.05191 16.2 28.3481
965 1 6.07659 18.2247 28.3481
966 1 6.07659 16.2 30.3728
967 1 4.05191 18.2247 30.3728
968 1 8.10127 16.2 28.3481
969 1 10.126 18.2247 28.3481
970 1 10.126 16.2 30.3728
971 1 8.10127 18.2247 30.3728
972 1 12.1506 16.2 28.3481
973 1 14.1753 18.2247 28.3481
974 1 14.1753 16.2 30.3728
975 1 12.1506 18.2247 30.3728
976 1 0.00254322 20.2494 28.3481
977 1 2.02723 22.274 28.3481
978 1 2.02723 20.2494 30.3728
979 1 0.00254322 22.2741 30.3728
980 1 4.05191 20.2494 28.3481
981 1 6.07659 22.274 28.3481
982 1 6.07659 20.2494 30.3728
983 1 4.05191 22.274 30.3728
984 1 8.10127 20.2494 28.3481
985 1 10.126 22.274 28.3481
986 1 10.126 20.2494 30.3728
987 1 8.10127 22.274 30.3728
988 1 12.1506 20.2494 28.3481
989 1 14.1753 22.274 28.3481
990 1 14.1753 20.2494 30.3728
991 1 12.1506 22.274 30.3728
992 1 0.00254322 24.2988 28.3481
993 1 2.0271 26.3236 28.3482
994 1 2.0272 24.2988 30.3728
995 1 0.00254322 26.3252 30.3733
996 1 4.0519 24.2987 28.3481
997 1 6.07657 26.3234 28.3481